ITEM: TIMESTEP
3000000
ITEM: NUMBER OF ATOMS
37359
ITEM: BOX BOUNDS pp pp pp
0.000000 100.000000
0.000000 50.000000
0.000000 110.000000
ITEM: ATOMS id type x y z vx vy vz q mask
3 6 23.620 11.382 13.702 0.005 0.002 0.003 0.525 0
27 6 18.006 7.307 20.124 -0.001 0.004 -0.000 0.541 5
33 6 23.860 6.823 2.692 0.000 0.000 0.000 0.488 4
36 6 14.249 15.403 17.565 0.001 0.007 0.003 0.537 5
46 6 4.350 6.981 1.181 0.000 0.000 0.000 0.391 4
65 6 14.251 8.956 13.772 0.002 0.002 0.001 0.550 0
86 6 14.528 13.523 20.031 0.004 0.002 0.003 0.536 5
87 6 12.760 12.718 17.919 -0.001 0.002 -0.001 0.492 5
98 6 1.948 14.968 13.495 -0.005 -0.001 0.002 0.490 0
101 6 1.353 2.393 11.782 -0.003 0.004 0.001 0.537 0
108 6 9.025 1.515 8.997 0.000 0.000 0.000 0.466 4
109 6 6.861 11.680 21.427 0.002 -0.002 -0.002 0.518 5
110 6 16.252 16.665 2.046 0.000 0.000 0.000 0.368 4
113 6 12.794 2.384 19.240 -0.009 -0.001 0.000 0.527 5
116 6 20.480 12.711 12.971 0.006 -0.001 0.004 0.414 0
129 6 15.733 4.223 15.061 -0.001 0.000 -0.001 0.543 5
135 6 9.551 13.311 21.296 0.002 0.003 -0.003 0.464 5
151 6 17.624 2.123 11.451 0.002 0.004 -0.001 0.519 0
197 6 2.703 1.246 18.679 0.000 0.004 -0.002 0.552 5
208 6 21.202 1.599 0.068 0.000 0.000 0.000 0.354 4
222 6 0.593 0.230 14.055 -0.000 -0.001 0.005 0.532 0
224 6 10.604 2.138 12.205 -0.006 0.000 0.002 0.511 0
229 6 1.959 5.028 1.818 0.000 0.000 0.000 0.478 4
240 6 10.165 14.395 12.584 -0.001 0.004 -0.002 0.519 0
253 6 1.336 11.161 17.718 -0.003 0.004 0.003 0.540 5
258 6 18.333 8.600 4.829 0.000 0.000 0.000 0.518 4
261 6 6.415 14.841 3.713 0.000 0.000 0.000 0.527 4
265 6 18.570 5.512 8.102 0.000 0.000 0.000 0.519 4
281 6 15.917 3.987 9.075 0.000 0.000 0.000 0.528 4
288 6 5.458 13.591 17.056 -0.000 0.002 0.001 0.532 5
308 6 10.995 9.480 13.984 -0.004 0.002 0.000 0.548 0
321 6 7.876 4.098 17.103 0.002 0.000 0.006 0.532 5
328 6 17.968 3.237 17.016 -0.002 0.001 0.001 0.493 5
348 6 18.552 8.461 8.938 0.000 0.000 0.000 0.513 4
367 6 7.423 12.265 4.497 0.000 0.000 0.000 0.525 4
370 6 0.692 9.545 7.267 0.000 0.000 0.000 0.520 4
371 6 17.681 14.375 6.069 0.000 0.000 0.000 0.522 4
375 6 22.184 5.036 18.038 -0.001 -0.002 -0.001 0.531 5
379 6 10.714 8.690 11.121 0.002 0.003 -0.002 0.485 0
393 6 0.939 5.191 12.457 -0.003 -0.003 0.000 0.480 0
404 6 12.781 10.447 0.741 0.000 0.000 0.000 0.382 4
405 6 10.773 6.183 8.538 0.000 0.000 0.000 0.498 4
428 6 4.514 2.163 15.384 0.002 0.000 0.001 0.468 5
441 6 5.828 5.307 6.086 0.000 0.000 0.000 0.525 4
445 6 20.325 11.105 8.535 0.000 0.000 0.000 0.540 4
473 6 1.750 8.143 18.750 -0.000 0.003 0.007 0.460 5
485 6 11.871 13.720 7.236 0.000 0.000 0.000 0.461 4
486 6 3.350 9.737 19.906 0.002 -0.001 0.004 0.455 5
503 6 21.159 5.710 3.814 0.000 0.000 0.000 0.511 4
505 6 18.029 7.240 17.206 -0.001 -0.001 0.002 0.538 5
507 6 5.002 12.260 2.515 0.000 0.000 0.000 0.504 4
533 6 18.696 10.811 14.380 0.000 0.005 -0.002 0.531 0
534 6 1.221 16.077 2.548 0.000 0.000 0.000 0.518 4
556 6 23.485 8.616 10.422 -0.002 0.002 0.001 0.526 0
579 6 24.510 2.324 4.006 0.000 0.000 0.000 0.508 4
587 6 2.059 1.675 4.517 0.000 0.000 0.000 0.516 4
593 6 20.174 1.084 10.872 0.004 0.007 0.001 0.414 0
594 6 5.299 12.087 14.468 -0.002 0.000 -0.005 0.525 0
597 6 4.074 2.699 6.605 0.000 0.000 0.000 0.524 4
600 6 15.191 10.694 18.526 0.003 0.001 0.001 0.500 5
610 6 17.146 1.741 7.271 0.000 0.000 0.000 0.531 4
616 6 14.759 14.110 2.268 0.000 0.000 0.000 0.434 4
628 6 12.059 12.702 2.493 0.000 0.000 0.000 0.505 4
632 6 14.205 9.194 20.854 0.007 0.002 0.000 0.522 5
643 6 5.179 14.740 6.815 0.000 0.000 0.000 0.497 4
650 6 17.034 0.653 1.796 0.000 0.000 0.000 0.475 4
676 6 8.548 4.328 4.605 0.000 0.000 0.000 0.506 4
679 6 0.824 9.864 12.457 -0.002 -0.004 0.001 0.497 0
683 6 15.793 11.654 9.427 0.000 0.000 0.000 0.522 4
684 6 18.845 0.260 18.555 -0.007 -0.001 -0.001 0.512 5
694 6 0.641 10.457 2.635 0.000 0.000 0.000 0.430 4
703 6 0.478 13.673 1.020 0.000 0.000 0.000 0.428 4
715 6 4.001 4.080 3.852 0.000 0.000 0.000 0.516 4
748 6 10.297 14.281 19.008 0.000 -0.004 -0.000 0.490 5
753 6 13.972 11.942 12.760 -0.001 -0.004 -0.006 0.535 0
766 6 21.256 14.853 13.640 -0.001 -0.005 0.001 0.427 0
770 6 13.987 9.632 3.253 0.000 0.000 0.000 0.509 4
780 6 2.711 13.674 11.009 0.003 -0.001 -0.000 0.509 0
800 6 1.589 3.814 7.680 0.000 0.000 0.000 0.517 4
814 6 18.253 11.513 11.495 0.003 0.000 0.002 0.483 0
843 6 21.704 11.233 5.375 0.000 0.000 0.000 0.553 4
855 6 2.099 12.900 20.022 0.002 0.004 -0.000 0.640 5
868 6 18.402 9.872 18.503 -0.002 -0.003 0.001 0.520 5
871 6 15.768 8.794 8.287 0.000 0.000 0.000 0.517 4
891 6 19.889 1.439 16.215 -0.002 -0.001 -0.002 0.474 5
896 6 9.330 10.607 9.118 0.000 0.000 0.000 0.517 4
904 6 19.641 13.666 15.624 -0.001 0.004 -0.006 0.487 5
910 6 23.080 8.475 4.701 0.000 0.000 0.000 0.481 4
917 6 3.081 15.061 18.195 0.001 -0.000 -0.001 0.518 5
928 6 4.528 12.136 9.265 0.000 0.000 0.000 0.512 4
930 6 24.969 11.708 8.220 0.000 0.000 0.000 0.538 4
937 6 5.750 11.548 6.693 0.000 0.000 0.000 0.519 4
944 6 19.492 5.086 18.824 -0.006 -0.002 0.003 0.548 5
948 6 8.760 6.811 2.687 0.000 0.000 0.000 0.487 4
965 6 5.083 13.504 19.941 -0.001 -0.001 0.001 0.496 5
985 6 2.907 15.491 0.089 0.000 0.000 0.000 0.332 4
1031 6 23.096 15.522 4.214 0.000 0.000 0.000 0.519 4
1045 6 6.261 0.027 1.607 0.000 0.000 0.000 0.467 4
1051 6 18.534 11.565 5.482 0.000 0.000 0.000 0.495 4
1057 6 15.602 14.385 12.921 0.002 -0.002 -0.006 0.542 0
1062 6 3.297 10.349 15.536 -0.000 0.005 -0.001 0.518 5
1064 6 8.893 6.760 18.245 -0.009 0.002 -0.002 0.508 5
1069 6 20.464 6.374 11.895 0.006 0.001 0.001 0.525 0
1075 6 13.125 11.529 5.278 0.000 0.000 0.000 0.530 4
1077 6 20.627 7.054 6.363 0.000 0.000 0.000 0.476 4
1080 6 10.895 11.626 11.638 0.001 -0.000 -0.004 0.554 0
1082 6 1.547 1.635 1.313 0.000 0.000 0.000 0.371 4
1096 6 23.383 14.522 11.637 0.003 0.000 -0.002 0.498 0
1106 6 13.762 6.455 7.950 0.000 0.000 0.000 0.521 4
1108 6 11.927 2.413 16.377 0.003 0.004 -0.002 0.544 5
1116 6 6.346 8.205 6.350 0.000 0.000 0.000 0.528 4
1119 6 8.656 0.362 3.678 0.000 0.000 0.000 0.470 4
1125 6 10.309 11.895 4.891 0.000 0.000 0.000 0.520 4
1134 6 14.076 0.658 15.793 -0.001 0.002 0.001 0.505 5
1135 6 18.601 3.356 14.199 0.002 0.002 -0.002 0.521 0
1136 6 17.970 10.214 2.120 0.000 0.000 0.000 0.412 4
1139 6 5.424 10.047 4.450 0.000 0.000 0.000 0.513 4
1142 6 23.793 12.053 18.554 0.002 0.001 0.002 0.520 5
1148 6 23.201 2.249 6.731 0.000 0.000 0.000 0.533 4
1163 6 2.532 7.389 12.983 -0.000 -0.002 -0.007 0.440 0
1201 6 15.228 2.828 17.830 0.000 -0.002 0.001 0.538 5
1202 6 12.118 6.891 21.702 -0.007 0.006 -0.002 0.530 5
1211 6 23.987 14.669 17.422 0.000 0.002 0.001 0.512 5
1216 6 5.962 5.142 13.055 -0.000 0.002 0.004 0.473 0
1223 6 20.244 12.558 3.223 0.000 0.000 0.000 0.479 4
1226 6 24.081 12.820 3.955 0.000 0.000 0.000 0.528 4
1230 6 19.986 15.180 4.411 0.000 0.000 0.000 0.529 4
1251 6 0.318 7.960 1.009 0.000 0.000 0.000 0.297 4
1275 6 6.975 1.746 15.780 0.001 -0.004 0.000 0.437 5
1282 6 11.282 9.209 4.924 0.000 0.000 0.000 0.508 4
1283 6 17.606 12.241 16.931 -0.003 -0.004 -0.006 0.499 5
1286 6 24.495 11.171 10.977 0.003 -0.003 -0.000 0.411 0
1287 6 22.100 10.912 11.405 -0.004 -0.001 0.000 0.427 0
1290 6 11.714 3.941 4.148 0.000 0.000 0.000 0.505 4
1319 6 5.509 4.091 8.774 0.000 0.000 0.000 0.488 4
1331 6 13.753 14.139 15.037 -0.003 -0.001 0.003 0.531 5
1333 6 14.509 16.327 10.855 0.001 0.005 -0.000 0.532 0
1365 6 2.224 6.858 6.820 0.000 0.000 0.000 0.513 4
1372 6 6.872 16.301 19.476 0.001 -0.000 0.000 0.527 5
1392 6 10.070 2.357 6.349 0.000 0.000 0.000 0.494 4
1403 6 23.569 0.951 1.524 0.000 0.000 0.000 0.479 4
1409 6 13.181 4.390 9.875 0.000 0.000 0.000 0.517 4
1421 6 22.854 8.549 13.388 -0.001 0.004 0.003 0.443 0
1428 6 20.927 1.062 13.580 -0.007 -0.001 0.006 0.525 0
1429 6 5.633 1.176 18.416 -0.009 -0.002 -0.003 0.547 5
1456 6 7.319 6.397 15.368 -0.000 0.000 0.003 0.511 5
1480 6 24.185 3.342 15.262 -0.002 0.006 0.001 0.515 5
1481 6 7.995 14.984 16.787 0.006 0.002 0.003 0.540 5
1482 6 17.957 2.716 19.735 0.004 -0.001 0.004 0.561 5
1486 6 23.584 9.050 0.457 0.000 0.000 0.000 0.401 4
1493 6 8.125 4.362 7.530 0.000 0.000 0.000 0.518 4
1498 6 23.322 13.589 6.546 0.000 0.000 0.000 0.538 4
1508 6 13.308 8.882 9.701 0.000 0.000 0.000 0.485 4
1512 6 4.519 7.724 15.538 0.000 0.000 -0.001 0.522 5
1522 6 20.883 4.350 1.186 0.000 0.000 0.000 0.470 4
1532 6 17.540 15.469 10.969 -0.005 -0.004 0.000 0.498 0
1539 6 15.286 7.301 18.910 0.001 0.000 0.001 0.543 5
1562 6 18.451 5.073 2.594 0.000 0.000 0.000 0.409 4
1569 6 7.989 4.936 21.611 -0.001 0.002 0.000 0.628 5
1579 6 18.547 2.636 0.336 0.000 0.000 0.000 0.374 4
1617 6 23.430 6.545 7.309 0.000 0.000 0.000 0.505 4
1622 6 10.872 16.161 5.519 0.000 0.000 0.000 0.519 4
1626 6 16.471 6.769 6.390 0.000 0.000 0.000 0.508 4
1639 6 11.660 10.013 19.108 0.001 -0.005 0.003 0.538 5
1640 6 19.731 13.828 18.664 -0.009 0.001 -0.003 0.542 5
1641 6 2.060 3.556 16.694 -0.001 -0.004 -0.006 0.526 5
1649 6 22.245 2.316 11.270 -0.001 -0.001 -0.001 0.432 0
1680 6 0.332 0.976 7.033 0.000 0.000 0.000 0.535 4
1695 6 13.970 5.138 2.213 0.000 0.000 0.000 0.517 4
1713 6 8.253 12.665 10.740 -0.000 -0.011 -0.002 0.519 0
1721 6 16.540 14.766 15.960 -0.001 0.002 0.002 0.525 5
1730 6 8.005 15.636 6.146 0.000 0.000 0.000 0.513 4
1735 6 22.307 12.709 15.984 0.004 -0.000 -0.006 0.516 5
1739 6 8.909 15.543 9.080 0.000 0.000 0.000 0.523 4
1756 6 9.626 8.481 20.634 0.007 -0.002 -0.002 0.560 5
1769 6 8.258 16.187 14.163 -0.002 0.002 0.004 0.507 0
1791 6 22.555 2.043 17.311 0.001 -0.005 -0.001 0.495 5
1794 6 6.927 8.611 17.311 -0.000 -0.000 -0.004 0.506 5
1802 6 12.260 7.097 14.842 -0.007 -0.002 -0.001 0.519 0
1821 6 2.304 15.431 5.446 0.000 0.000 0.000 0.518 4
1859 6 18.857 10.205 21.295 0.003 0.006 0.004 0.497 5
1884 6 4.488 6.721 18.365 -0.003 -0.006 0.006 0.545 5
1892 6 21.673 4.207 13.735 0.004 0.000 -0.004 0.528 0
1896 6 18.573 7.339 1.995 0.000 0.000 0.000 0.402 4
1902 6 19.969 7.997 14.656 0.001 0.002 -0.000 0.514 0
1910 6 0.085 5.454 9.752 0.000 0.000 0.000 0.446 4
1912 6 8.113 16.430 1.919 0.000 0.000 0.000 0.461 4
1913 6 19.923 2.070 6.058 0.000 0.000 0.000 0.408 4
1914 6 3.339 9.418 2.785 0.000 0.000 0.000 0.464 4
1915 6 1.020 4.452 4.655 0.000 0.000 0.000 0.524 4
1918 6 6.266 2.816 2.405 0.000 0.000 0.000 0.457 4
1940 6 15.899 10.986 1.243 0.000 0.000 0.000 0.385 4
1941 6 6.797 6.997 20.122 -0.002 0.003 -0.006 0.553 5
1956 6 6.021 10.921 18.830 0.001 -0.000 0.001 0.539 5
1959 6 10.521 8.465 16.710 -0.000 0.004 -0.003 0.514 5
1973 6 20.652 1.445 20.763 -0.002 0.004 -0.003 0.535 5
1987 6 11.912 7.029 18.914 0.003 0.003 0.003 0.473 5
1989 6 11.430 12.342 14.428 -0.006 -0.005 -0.002 0.396 0
2012 6 13.466 2.049 2.432 0.000 0.000 0.000 0.517 4
2015 6 22.885 6.090 0.048 0.000 0.000 0.000 0.349 4
2029 6 17.554 4.082 5.425 0.000 0.000 0.000 0.521 4
2075 6 6.315 9.391 8.939 0.000 0.000 0.000 0.533 4
2076 6 3.674 9.549 12.818 0.005 -0.005 0.003 0.433 0
2077 6 19.207 16.357 17.002 -0.002 -0.000 0.001 0.522 5
2079 6 8.321 3.780 12.191 -0.001 -0.002 -0.005 0.455 0
2080 6 22.413 10.726 2.585 0.000 0.000 0.000 0.473 4
2090 6 6.305 2.131 10.890 0.005 0.001 0.000 0.540 0
2095 6 23.713 2.065 20.796 0.006 0.000 0.000 0.501 5
2101 6 12.523 11.541 21.583 -0.005 -0.003 -0.001 0.441 5
2104 6 15.222 7.004 15.892 0.001 0.001 -0.000 0.517 5
2111 6 18.355 15.783 13.808 0.003 -0.001 -0.001 0.531 0
2139 6 21.669 2.732 3.844 0.000 0.000 0.000 0.508 4
2143 6 5.918 7.692 11.363 0.004 -0.001 -0.001 0.530 0
2151 6 5.408 16.257 1.203 0.000 0.000 0.000 0.442 4
2153 6 8.938 2.806 19.850 0.002 -0.001 0.006 0.522 5
2159 6 22.581 4.329 9.026 0.000 0.000 0.000 0.559 4
2173 6 7.201 12.258 0.330 0.000 0.000 0.000 0.346 4
2188 6 18.201 8.408 12.253 -0.001 0.000 -0.001 0.513 0
2192 6 2.870 4.874 10.439 0.001 -0.001 -0.001 0.533 0
2202 6 1.975 11.003 10.031 0.006 -0.001 -0.001 0.527 0
2211 6 19.058 14.885 1.442 0.000 0.000 0.000 0.454 4
2215 6 4.671 6.791 8.614 0.000 0.000 0.000 0.498 4
2251 6 22.669 9.547 7.480 0.000 0.000 0.000 0.533 4
2264 6 10.181 3.905 10.081 -0.000 -0.002 -0.007 0.473 0
2270 6 9.165 13.689 2.524 0.000 0.000 0.000 0.537 4
2277 6 14.343 4.965 5.253 0.000 0.000 0.000 0.545 4
2290 6 13.514 5.128 17.049 0.005 -0.002 -0.005 0.523 5
2292 6 14.302 13.546 7.620 0.000 0.000 0.000 0.461 4
2297 6 13.429 2.419 13.365 0.005 -0.001 0.002 0.507 0
2310 6 4.585 0.267 13.046 0.003 0.003 0.002 0.444 0
2318 6 19.875 3.870 10.123 0.006 -0.000 0.001 0.524 0
2323 6 20.376 13.949 7.413 0.000 0.000 0.000 0.516 4
2331 6 23.046 9.139 18.363 -0.002 -0.002 -0.003 0.512 5
2340 6 8.303 9.278 4.515 0.000 0.000 0.000 0.532 4
2342 6 11.754 15.203 9.980 0.000 0.000 0.000 0.556 4
2348 6 11.440 15.689 2.418 0.000 0.000 0.000 0.486 4
2353 6 22.277 13.511 20.448 -0.002 0.000 0.006 0.517 5
2392 6 8.371 4.356 1.319 0.000 0.000 0.000 0.391 4
2396 6 21.010 11.093 19.551 -0.000 -0.009 0.002 0.551 5
2405 6 9.009 11.226 19.137 0.007 0.001 -0.001 0.542 5
2408 6 11.099 8.637 2.105 0.000 0.000 0.000 0.512 4
2414 6 12.604 15.979 12.893 0.003 0.004 0.002 0.530 0
2418 6 21.298 7.332 9.170 0.000 0.000 0.000 0.511 4
2426 6 9.439 3.035 14.817 0.002 0.003 -0.001 0.526 0
2428 6 4.906 4.937 16.111 0.003 0.001 -0.001 0.497 5
2436 6 7.588 11.735 16.472 -0.001 0.002 0.002 0.525 5
2447 6 12.411 1.676 8.415 0.000 0.000 0.000 0.492 4
2450 6 4.186 7.111 4.437 0.000 0.000 0.000 0.514 4
2461 6 3.412 2.124 9.689 0.000 0.000 0.000 0.537 4
2478 6 8.210 9.296 1.292 0.000 0.000 0.000 0.378 4
2490 6 20.024 5.414 15.926 0.001 -0.008 0.000 0.523 5
2502 6 13.847 4.921 20.217 -0.002 -0.003 -0.004 0.480 5
2503 6 0.444 0.583 20.590 -0.001 0.005 -0.000 0.690 5
2506 6 2.220 13.355 3.331 0.000 0.000 0.000 0.496 4
2526 6 13.107 6.683 11.957 0.003 0.003 -0.003 0.535 0
2547 6 8.561 7.859 13.034 -0.002 0.000 0.003 0.520 0
2552 6 11.485 4.573 13.660 0.001 0.004 -0.001 0.494 0
2555 6 16.242 15.523 8.370 0.000 0.000 0.000 0.534 4
2564 6 17.707 6.028 10.714 -0.001 0.002 -0.000 0.520 0
2567 6 8.748 12.909 7.403 0.000 0.000 0.000 0.540 4
2586 6 16.366 9.650 16.130 0.000 -0.002 -0.002 0.532 5
2600 6 21.689 15.792 9.364 0.000 0.000 0.000 0.540 4
2608 6 9.612 0.342 16.108 0.000 0.004 -0.002 0.528 5
2623 6 4.430 2.406 20.653 -0.000 0.001 0.001 0.529 5
2650 6 15.270 4.347 11.969 0.000 -0.008 0.007 0.527 0
2660 6 5.901 4.266 19.128 0.001 0.003 -0.005 0.521 5
2661 6 15.973 12.074 4.056 0.000 0.000 0.000 0.523 4
2666 6 7.746 10.668 13.566 -0.002 -0.001 0.001 0.498 0
2684 6 11.795 9.987 7.682 0.000 0.000 0.000 0.482 4
2695 6 10.649 11.309 16.558 0.001 -0.005 0.002 0.390 5
2697 6 0.699 13.143 5.766 0.000 0.000 0.000 0.492 4
2712 6 2.659 13.241 15.889 -0.001 -0.008 -0.001 0.531 5
2714 6 17.296 12.471 20.012 -0.004 -0.003 0.002 0.434 5
2726 6 8.533 7.872 9.962 0.000 0.000 0.000 0.476 4
2728 6 23.739 5.943 12.326 0.000 -0.000 -0.001 0.505 0
2746 6 15.803 7.070 3.501 0.000 0.000 0.000 0.539 4
2751 6 15.254 2.094 5.012 0.000 0.000 0.000 0.516 4
2763 6 20.749 4.113 6.863 0.000 0.000 0.000 0.421 4
2810 6 11.159 5.512 1.540 0.000 0.000 0.000 0.518 4
2815 6 5.993 10.716 11.406 -0.002 0.003 0.005 0.469 0
2816 6 22.459 12.882 9.426 0.000 0.000 0.000 0.547 4
2840 6 14.458 1.795 10.607 -0.000 -0.002 -0.000 0.507 0
2845 6 15.548 3.234 0.413 0.000 0.000 0.000 0.242 4
2886 6 2.665 10.917 5.336 0.000 0.000 0.000 0.536 4
2896 6 13.031 7.237 0.058 0.000 0.000 0.000 0.351 4
2899 6 20.740 10.046 16.679 -0.001 -0.004 -0.004 0.527 5
2906 6 9.394 6.885 5.775 0.000 0.000 0.000 0.499 4
2909 6 12.843 12.198 9.698 0.000 0.000 0.000 0.516 4
2915 6 18.165 13.375 9.136 0.000 0.000 0.000 0.515 4
2919 6 21.881 4.543 20.935 0.002 -0.002 -0.003 0.501 5
2921 6 2.807 4.398 19.404 -0.002 0.003 -0.007 0.555 5
2929 6 10.711 4.341 18.211 0.003 0.003 -0.001 0.544 5
2953 6 5.643 13.576 11.706 -0.001 -0.001 -0.003 0.498 0
2957 6 10.337 2.316 2.072 0.000 0.000 0.000 0.506 4
2958 6 18.267 15.152 21.008 -0.004 0.000 0.002 0.532 5
2963 6 13.520 16.293 6.656 0.000 0.000 0.000 0.512 4
2971 6 1.347 6.602 21.350 -0.001 -0.006 -0.001 0.719 5
2975 6 9.848 11.476 0.685 0.000 0.000 0.000 0.344 4
3007 6 11.262 3.782 21.353 0.004 -0.007 -0.002 0.536 5
3019 6 15.992 6.295 0.436 0.000 0.000 0.000 0.258 4
3029 6 22.350 7.323 16.107 0.002 0.005 -0.002 0.546 5
3041 6 15.983 6.729 13.201 -0.002 0.004 0.000 0.517 0
3047 4 3.306 7.185 8.129 0.000 0.000 0.000 -0.313 4
3048 4 7.157 16.296 0.607 0.000 0.000 0.000 -0.281 4
3064 4 15.850 10.268 8.682 0.000 0.000 0.000 -0.388 4
3072 4 19.026 6.775 15.830 -0.001 0.000 -0.000 -0.381 5
3085 4 19.576 1.209 0.494 0.000 0.000 0.000 -0.361 4
3098 4 18.168 7.798 10.518 0.001 -0.002 0.007 -0.389 0
3102 4 12.349 1.489 17.834 0.004 0.004 0.001 -0.412 5
3115 4 2.473 0.979 2.809 0.000 0.000 0.000 -0.350 4
3123 4 4.577 14.962 0.280 0.000 0.000 0.000 -0.215 4
3142 4 17.248 15.213 12.650 0.002 0.002 0.003 -0.410 0
3157 4 3.276 7.885 19.059 0.004 -0.010 0.000 -0.368 5
3162 4 4.099 6.408 16.598 -0.006 0.007 -0.000 -0.388 5
3163 4 22.496 9.785 1.311 0.000 0.000 0.000 -0.308 4
3169 4 23.958 5.499 6.280 0.000 0.000 0.000 -0.327 4
3180 4 6.432 14.865 20.351 -0.002 0.006 0.000 -0.410 5
3185 4 4.812 5.447 4.598 0.000 0.000 0.000 -0.404 4
3193 4 17.324 0.282 11.449 0.002 0.003 0.000 -0.396 0
3201 4 5.302 9.403 12.023 0.004 -0.002 0.007 -0.376 0
3214 4 8.536 14.663 7.685 0.000 0.000 0.000 -0.391 4
3228 4 7.452 11.283 11.901 0.006 -0.001 -0.001 -0.392 0
3230 4 7.116 10.524 4.325 0.000 0.000 0.000 -0.400 4
3233 4 15.828 12.394 0.168 0.000 0.000 0.000 -0.126 4
3242 4 20.293 0.617 7.042 0.000 0.000 0.000 -0.403 4
3245 4 13.652 13.983 16.785 0.008 0.007 0.002 -0.386 5
3247 4 8.032 8.212 5.812 0.000 0.000 0.000 -0.374 4
3298 4 18.364 2.600 6.177 0.000 0.000 0.000 -0.396 4
3305 4 19.434 14.488 5.944 0.000 0.000 0.000 -0.388 4
3308 4 9.108 1.643 2.973 0.000 0.000 0.000 -0.320 4
3336 4 23.913 14.198 3.052 0.000 0.000 0.000 -0.376 4
3338 4 7.552 1.403 9.958 0.000 0.000 0.000 -0.367 4
3340 4 11.843 13.649 18.684 -0.006 0.005 0.003 -0.340 5
3345 4 22.921 12.562 5.265 0.000 0.000 0.000 -0.427 4
3366 4 8.152 5.678 16.906 0.004 -0.004 -0.006 -0.362 5
3375 4 5.569 16.078 7.779 0.000 0.000 0.000 -0.371 4
3376 4 17.798 8.849 17.166 0.006 -0.002 -0.005 -0.399 5
3379 4 0.961 9.289 17.570 0.008 0.002 -0.000 -0.390 5
3383 4 2.328 11.546 16.296 -0.003 0.003 -0.012 -0.388 5
3390 4 4.868 4.135 7.015 0.000 0.000 0.000 -0.381 4
3405 4 10.014 9.923 19.767 0.003 0.001 -0.007 -0.441 5
3406 4 1.524 12.733 10.423 0.010 0.002 0.000 -0.417 0
3410 4 2.151 15.140 3.687 0.000 0.000 0.000 -0.388 4
3414 4 0.442 11.226 13.275 -0.002 0.007 0.001 -0.345 0
3418 4 14.160 3.354 19.098 -0.000 0.002 -0.006 -0.382 5
3434 4 10.234 10.258 7.839 0.000 0.000 0.000 -0.332 4
3437 4 18.781 6.678 18.691 -0.006 -0.001 -0.007 -0.415 5
3440 4 18.402 13.812 19.603 -0.002 0.001 -0.004 -0.373 5
3449 4 8.016 5.952 1.288 0.000 0.000 0.000 -0.276 4
3452 4 12.212 8.715 0.882 0.000 0.000 0.000 -0.362 4
3469 4 2.165 11.363 19.151 -0.005 0.002 -0.004 -0.408 5
3473 4 2.638 15.078 11.837 0.001 -0.002 0.001 -0.412 0
3487 4 10.411 10.366 10.687 -0.003 0.005 -0.005 -0.426 0
3491 4 12.666 8.724 14.372 -0.003 -0.008 0.003 -0.385 0
3525 4 10.207 2.290 10.281 0.012 -0.006 -0.004 -0.379 0
3533 4 22.644 6.835 3.661 0.000 0.000 0.000 -0.379 4
3537 4 0.798 14.664 6.172 0.000 0.000 0.000 -0.390 4
3581 4 19.703 1.867 14.690 -0.000 0.005 0.004 -0.396 0
3589 4 15.460 8.600 15.168 0.001 -0.000 0.010 -0.382 5
3591 4 10.205 12.816 6.676 0.000 0.000 0.000 -0.348 4
3603 4 5.536 12.412 0.848 0.000 0.000 0.000 -0.222 4
3607 4 15.603 3.655 5.283 0.000 0.000 0.000 -0.375 4
3619 4 16.419 6.968 19.995 -0.006 0.003 -0.005 -0.327 5
3623 4 5.889 6.689 7.000 0.000 0.000 0.000 -0.408 4
3627 4 17.238 12.022 10.134 -0.001 0.004 -0.005 -0.385 0
3655 4 3.813 14.895 6.020 0.000 0.000 0.000 -0.326 4
3689 4 23.596 15.377 5.892 0.000 0.000 0.000 -0.386 4
3701 4 8.828 8.083 17.400 0.006 0.003 -0.000 -0.366 5
3702 4 21.497 0.932 16.769 0.001 -0.006 0.003 -0.421 5
3723 4 0.766 3.655 13.027 0.007 0.002 -0.000 -0.406 0
3724 4 20.674 10.463 21.078 -0.005 -0.001 0.001 -0.384 5
3727 4 24.102 7.119 16.045 -0.001 -0.007 -0.002 -0.400 5
3731 4 13.032 1.997 15.166 0.001 0.003 -0.007 -0.396 5
3737 4 2.015 12.545 4.956 0.000 0.000 0.000 -0.400 4
3739 4 7.367 11.159 19.859 -0.001 0.014 0.005 -0.431 5
3743 4 4.277 5.080 19.061 0.002 -0.001 -0.001 -0.450 5
3747 4 3.812 7.857 2.596 0.000 0.000 0.000 -0.373 4
3761 4 8.076 15.169 15.157 0.004 -0.001 0.005 -0.374 5
3782 4 24.981 12.915 7.065 0.000 0.000 0.000 -0.389 4
3784 4 16.850 0.559 3.325 0.000 0.000 0.000 -0.348 4
3786 4 16.871 3.046 18.427 -0.003 -0.001 -0.002 -0.376 5
3788 4 22.853 15.427 13.022 0.001 -0.001 -0.006 -0.406 0
3794 4 8.332 6.706 14.220 0.000 0.002 -0.001 -0.312 0
3796 4 0.746 12.490 2.468 0.000 0.000 0.000 -0.370 4
3800 4 0.776 4.250 15.652 0.002 0.001 0.003 -0.394 5
3803 4 18.277 10.236 12.510 -0.002 -0.002 0.004 -0.385 0
3804 4 23.575 16.075 17.786 -0.003 -0.004 -0.003 -0.340 5
3817 4 18.535 14.258 10.438 -0.001 0.001 0.005 -0.293 0
3825 4 14.403 7.863 8.945 0.000 0.000 0.000 -0.416 4
3849 4 19.155 4.333 17.207 -0.004 0.008 0.000 -0.426 5
3855 4 11.194 16.476 1.137 0.000 0.000 0.000 -0.334 4
3867 4 21.589 10.669 7.115 0.000 0.000 0.000 -0.395 4
3870 4 10.229 8.475 12.873 0.004 -0.003 -0.006 -0.395 0
3874 4 21.863 3.257 0.403 0.000 0.000 0.000 -0.258 4
3879 4 24.803 8.702 5.045 0.000 0.000 0.000 -0.407 4
3889 4 22.009 11.854 12.801 -0.003 -0.006 0.006 -0.414 0
3891 4 17.168 9.750 0.630 0.000 0.000 0.000 -0.234 4
3894 4 23.830 6.892 10.727 -0.000 0.002 -0.008 -0.368 0
3939 4 5.729 0.873 11.962 -0.003 -0.004 0.001 -0.379 0
3942 4 9.078 4.619 11.037 -0.000 0.005 -0.002 -0.343 0
3944 4 2.841 2.722 7.993 0.000 0.000 0.000 -0.390 4
3947 4 13.499 0.840 1.368 0.000 0.000 0.000 -0.329 4
3950 4 18.432 8.945 2.986 0.000 0.000 0.000 -0.358 4
3951 4 19.668 7.097 8.147 0.000 0.000 0.000 -0.389 4
3961 4 24.470 2.080 0.508 0.000 0.000 0.000 -0.218 4
3969 4 7.832 0.344 16.046 -0.000 0.005 0.003 -0.394 5
3980 4 14.761 4.124 16.589 -0.001 -0.002 0.003 -0.410 5
3989 4 8.407 7.504 19.880 -0.002 0.001 0.002 -0.399 5
4000 4 14.139 15.198 19.400 0.008 -0.003 0.004 -0.404 5
4006 4 9.546 15.091 17.584 -0.007 -0.002 0.001 -0.414 5
4010 4 11.010 0.536 12.723 0.003 -0.005 -0.001 -0.382 0
4015 4 22.044 3.378 17.790 -0.001 0.002 0.003 -0.350 5
4034 4 24.183 2.039 16.625 0.003 -0.002 -0.003 -0.395 5
4046 4 8.057 9.235 9.105 0.000 0.000 0.000 -0.388 4
4047 4 2.625 3.120 10.832 -0.001 -0.001 0.002 -0.401 0
4054 4 10.886 14.123 2.555 0.000 0.000 0.000 -0.404 4
4066 4 19.681 9.713 15.185 -0.006 -0.000 0.008 -0.384 5
4072 4 15.199 1.204 17.194 -0.008 -0.003 -0.001 -0.394 5
4082 4 14.313 12.135 18.867 -0.003 0.002 -0.009 -0.363 5
4087 4 12.861 10.291 9.022 0.000 0.000 0.000 -0.410 4
4089 4 1.755 4.816 6.451 0.000 0.000 0.000 -0.352 4
4099 4 11.548 2.230 7.201 0.000 0.000 0.000 -0.325 4
4136 4 3.578 13.045 2.652 0.000 0.000 0.000 -0.314 4
4137 4 19.384 9.831 8.824 0.000 0.000 0.000 -0.354 4
4151 4 9.754 10.251 4.924 0.000 0.000 0.000 -0.369 4
4177 4 18.025 2.887 12.790 -0.002 0.003 0.001 -0.327 0
4187 4 11.535 11.630 1.359 0.000 0.000 0.000 -0.357 4
4190 4 20.894 7.270 10.709 -0.001 -0.003 -0.004 -0.337 0
4191 4 14.906 3.599 13.419 -0.001 -0.004 0.006 -0.386 0
4193 4 17.204 3.555 15.307 -0.007 0.003 -0.003 -0.395 5
4211 4 20.033 4.571 14.431 -0.001 0.004 0.002 -0.381 0
4229 4 12.207 5.114 21.332 0.008 -0.005 0.001 -0.386 5
4243 4 22.225 9.961 4.499 0.000 0.000 0.000 -0.395 4
4253 4 23.793 12.461 15.020 -0.000 -0.000 0.001 -0.396 0
4258 4 3.392 2.645 4.961 0.000 0.000 0.000 -0.385 4
4262 4 16.281 2.836 8.040 0.000 0.000 0.000 -0.359 4
4268 4 5.352 12.322 21.188 -0.001 -0.000 0.001 -0.228 5
4280 4 5.119 2.516 9.782 0.000 0.000 0.000 -0.377 4
4303 4 11.128 7.628 20.570 0.004 -0.005 -0.002 -0.400 5
4315 4 12.285 5.213 2.689 0.000 0.000 0.000 -0.360 4
4316 4 0.763 7.637 19.955 0.006 0.010 -0.003 -0.445 5
4322 4 13.214 13.233 21.263 -0.009 0.006 -0.003 -0.377 5
4325 4 23.669 9.815 14.266 -0.002 0.000 -0.001 -0.364 0
4327 4 20.018 10.540 18.280 -0.000 -0.004 -0.007 -0.412 5
4333 4 12.570 12.054 11.241 0.002 0.003 -0.000 -0.389 0
4349 4 6.100 9.748 7.353 0.000 0.000 0.000 -0.368 4
4356 4 1.618 0.630 5.774 0.000 0.000 0.000 -0.401 4
4358 4 23.514 7.321 1.078 0.000 0.000 0.000 -0.354 4
4367 4 9.506 12.736 19.615 -0.005 -0.002 -0.003 -0.382 5
4376 4 15.363 14.630 14.620 0.000 -0.004 -0.005 -0.397 0
4381 4 19.621 4.296 8.268 0.000 0.000 0.000 -0.394 4
4394 4 7.674 16.357 9.961 0.000 0.000 0.000 -0.415 4
4398 4 11.488 4.715 9.524 0.000 0.000 0.000 -0.399 4
4411 4 23.116 2.520 5.128 0.000 0.000 0.000 -0.386 4
4414 4 19.505 12.602 8.332 0.000 0.000 0.000 -0.401 4
4424 4 11.049 11.028 13.275 -0.000 0.002 -0.015 -0.406 0
4427 4 15.181 12.988 12.388 -0.000 -0.003 0.001 -0.354 0
4451 4 21.631 5.835 16.613 0.001 -0.004 -0.006 -0.411 5
4452 4 5.349 8.425 4.981 0.000 0.000 0.000 -0.409 4
4473 4 24.818 2.891 7.098 0.000 0.000 0.000 -0.376 4
4478 4 18.556 1.427 17.086 -0.000 0.004 0.002 -0.407 5
4479 4 1.454 3.499 0.885 0.000 0.000 0.000 -0.219 4
4489 4 4.828 3.386 2.653 0.000 0.000 0.000 -0.325 4
4517 4 10.392 7.028 2.176 0.000 0.000 0.000 -0.380 4
4538 4 19.806 0.375 12.343 0.005 -0.008 0.004 -0.378 0
4539 4 2.090 9.968 3.638 0.000 0.000 0.000 -0.373 4
4544 4 7.161 13.342 16.887 0.001 -0.010 0.005 -0.385 5
4558 4 4.553 12.941 15.758 -0.002 0.004 -0.001 -0.391 5
4571 4 11.748 2.537 2.950 0.000 0.000 0.000 -0.370 4
4575 4 6.105 13.240 3.542 0.000 0.000 0.000 -0.399 4
4577 4 5.125 12.750 7.665 0.000 0.000 0.000 -0.337 4
4580 4 12.828 4.303 5.141 0.000 0.000 0.000 -0.334 4
4581 4 15.916 3.114 10.824 0.009 -0.008 -0.006 -0.405 0
4591 4 21.763 2.447 12.796 -0.003 -0.000 0.000 -0.379 0
4604 4 5.825 10.894 9.797 0.000 0.000 0.000 -0.396 4
4611 4 21.448 4.179 3.080 0.000 0.000 0.000 -0.384 4
4613 4 9.357 15.620 5.340 0.000 0.000 0.000 -0.337 4
4618 4 12.936 16.339 9.874 0.000 0.000 0.000 -0.399 4
4628 4 6.359 7.916 15.937 0.003 -0.004 -0.001 -0.354 5
4687 4 22.097 3.440 7.529 0.000 0.000 0.000 -0.411 4
4693 4 22.240 13.384 7.763 0.000 0.000 0.000 -0.399 4
4709 4 5.605 7.920 9.746 0.000 0.000 0.000 -0.407 4
4715 4 0.161 9.560 1.059 0.000 0.000 0.000 -0.263 4
4726 4 20.602 15.178 8.333 0.000 0.000 0.000 -0.317 4
4735 4 9.196 11.455 17.304 0.006 0.004 0.000 -0.376 5
4740 4 5.421 13.051 13.133 -0.003 -0.001 0.002 -0.371 0
4742 4 5.895 7.490 18.624 -0.007 -0.003 -0.000 -0.401 5
4747 4 13.732 5.147 11.307 -0.003 -0.006 0.008 -0.403 0
4762 4 15.167 15.651 1.383 0.000 0.000 0.000 -0.251 4
4770 4 3.764 3.739 15.732 -0.001 0.001 -0.002 -0.364 5
4772 4 16.606 13.436 16.794 -0.006 -0.007 0.006 -0.343 5
4777 4 22.457 7.956 6.413 0.000 0.000 0.000 -0.391 4
4778 4 7.069 4.426 8.712 0.000 0.000 0.000 -0.352 4
4787 4 13.828 7.654 21.662 0.002 -0.014 -0.009 -0.416 5
4798 4 4.672 10.403 2.889 0.000 0.000 0.000 -0.381 4
4823 4 14.374 6.380 0.877 0.000 0.000 0.000 -0.346 4
4831 4 21.533 11.511 9.897 0.000 0.000 0.000 -0.398 4
4837 4 6.971 16.210 17.641 -0.002 0.003 0.003 -0.415 5
4839 4 7.147 11.616 14.851 -0.008 -0.005 -0.008 -0.385 0
4850 4 18.430 15.068 15.535 -0.001 -0.006 -0.005 -0.418 5
4851 4 1.080 8.202 13.367 -0.004 -0.004 -0.003 -0.394 0
4855 4 14.442 11.108 4.512 0.000 0.000 0.000 -0.395 4
4871 4 0.615 2.698 4.328 0.000 0.000 0.000 -0.400 4
4877 4 21.999 8.698 17.163 -0.010 0.007 0.002 -0.417 5
4891 4 1.624 4.157 18.111 -0.003 0.000 -0.007 -0.405 5
4892 4 15.901 15.629 9.998 0.002 0.003 -0.001 -0.395 0
4896 4 5.142 1.352 6.883 0.000 0.000 0.000 -0.332 4
4909 4 14.911 8.914 19.421 -0.000 0.001 0.001 -0.389 5
4913 4 20.460 1.734 4.463 0.000 0.000 0.000 -0.388 4
4919 4 21.075 5.141 19.515 -0.002 -0.001 -0.003 -0.395 5
4924 4 3.745 7.827 13.884 0.001 0.006 0.002 -0.355 0
4928 4 22.219 2.642 20.831 -0.006 0.006 -0.013 -0.392 5
4955 4 12.668 0.102 8.504 0.000 0.000 0.000 -0.327 4
4975 4 16.970 8.011 7.746 0.000 0.000 0.000 -0.386 4
4979 4 18.190 10.068 5.632 0.000 0.000 0.000 -0.335 4
4982 4 6.192 4.309 17.548 0.002 -0.003 0.002 -0.384 5
4989 4 23.621 12.974 19.997 -0.001 0.004 -0.011 -0.312 5
5001 4 20.057 15.689 13.018 -0.002 0.004 -0.003 -0.395 0
5006 4 21.263 12.027 2.301 0.000 0.000 0.000 -0.320 4
5019 4 9.356 3.757 21.081 0.003 -0.002 -0.001 -0.418 5
5038 4 19.480 12.328 14.289 -0.001 0.007 -0.003 -0.391 0
5039 4 17.292 12.599 5.325 0.000 0.000 0.000 -0.375 4
5042 4 17.371 14.402 7.852 0.000 0.000 0.000 -0.415 4
5043 4 23.220 0.498 7.056 0.000 0.000 0.000 -0.410 4
5055 4 19.186 3.874 1.140 0.000 0.000 0.000 -0.363 4
5061 4 12.085 6.080 13.276 -0.010 0.004 0.004 -0.390 0
5062 4 20.479 0.026 9.618 0.000 0.000 0.000 -0.408 4
5091 4 24.657 15.930 1.057 0.000 0.000 0.000 -0.246 4
5095 4 19.735 7.872 5.383 0.000 0.000 0.000 -0.317 4
5099 4 4.220 1.293 14.211 -0.002 0.012 0.001 -0.360 0
5109 4 11.478 15.072 11.858 0.002 -0.007 0.009 -0.394 0
5118 4 22.857 5.667 21.630 -0.000 -0.005 0.001 -0.318 5
5138 4 19.877 15.688 18.410 0.007 -0.001 0.005 -0.397 5
5140 4 23.001 13.374 17.554 0.004 -0.005 -0.001 -0.400 5
5145 4 11.832 12.093 4.121 0.000 0.000 0.000 -0.408 4
5151 4 14.749 5.672 3.657 0.000 0.000 0.000 -0.371 4
5172 4 2.264 4.665 3.368 0.000 0.000 0.000 -0.374 4
5175 4 11.501 3.489 19.548 -0.003 -0.002 -0.003 -0.399 5
5182 4 17.158 11.289 18.565 0.002 0.003 -0.009 -0.396 5
5183 4 4.682 10.242 19.374 -0.004 0.001 0.007 -0.320 5
5185 4 5.419 12.629 18.544 -0.000 -0.002 0.002 -0.378 5
5189 4 17.633 0.541 8.502 0.000 0.000 0.000 -0.416 4
5194 4 1.638 13.609 14.286 0.002 0.001 -0.005 -0.393 0
5200 4 6.359 1.650 1.127 0.000 0.000 0.000 -0.277 4
5202 4 7.400 4.364 6.024 0.000 0.000 0.000 -0.399 4
5203 4 17.447 11.005 15.543 0.005 -0.006 -0.000 -0.367 5
5206 4 10.670 7.739 5.494 0.000 0.000 0.000 -0.316 4
5235 4 23.964 5.258 18.244 -0.007 -0.002 0.002 -0.406 5
5240 4 2.743 16.078 14.733 -0.004 0.000 -0.001 -0.370 0
5253 4 14.730 8.320 3.317 0.000 0.000 0.000 -0.331 4
5258 4 23.070 1.830 2.785 0.000 0.000 0.000 -0.328 4
5261 4 8.991 2.676 7.580 0.000 0.000 0.000 -0.380 4
5268 4 21.631 3.612 10.311 0.003 0.000 0.001 -0.424 0
5275 4 6.097 7.632 21.556 0.001 -0.007 -0.008 -0.371 5
5289 4 8.865 5.933 4.311 0.000 0.000 0.000 -0.394 4
5296 4 3.709 9.048 16.146 0.001 -0.001 0.007 -0.334 5