ITEM: TIMESTEP
4000000
ITEM: NUMBER OF ATOMS
37359
ITEM: BOX BOUNDS pp pp pp
0.000000 100.000000
0.000000 50.000000
0.000000 110.000000
ITEM: ATOMS id type x y z vx vy vz q mask
3 6 23.858 11.440 13.631 0.001 0.003 -0.001 0.515 0
27 6 18.277 7.365 19.887 0.001 -0.003 0.002 0.534 5
33 6 23.860 6.823 2.692 0.000 0.000 0.000 0.488 4
36 6 14.386 15.387 17.443 -0.001 0.004 0.002 0.540 5
46 6 4.350 6.981 1.181 0.000 0.000 0.000 0.391 4
65 6 14.315 9.038 13.577 0.002 0.002 0.005 0.540 0
86 6 14.828 13.391 19.873 -0.003 -0.000 -0.003 0.522 5
87 6 12.877 12.880 17.896 -0.002 0.002 -0.006 0.546 5
98 6 2.073 15.010 13.575 -0.001 0.000 -0.003 0.498 0
101 6 1.442 2.406 11.812 0.001 -0.003 -0.003 0.547 0
108 6 9.025 1.515 8.997 0.000 0.000 0.000 0.475 4
109 6 7.127 11.703 21.201 0.004 -0.001 0.001 0.538 5
110 6 16.252 16.665 2.046 0.000 0.000 0.000 0.368 4
113 6 13.207 2.438 19.234 0.008 -0.001 -0.004 0.519 5
116 6 20.623 12.744 12.854 -0.001 0.000 -0.003 0.393 0
129 6 15.888 4.200 15.018 -0.002 -0.003 -0.000 0.551 5
135 6 9.611 13.224 21.252 -0.001 -0.005 0.006 0.530 5
151 6 17.675 2.137 11.376 -0.002 -0.002 -0.010 0.519 0
197 6 2.807 1.302 18.677 -0.005 0.009 -0.005 0.537 5
208 6 21.202 1.599 0.068 0.000 0.000 0.000 0.354 4
222 6 0.477 0.204 13.896 -0.006 0.000 -0.002 0.571 0
224 6 10.676 2.132 12.065 -0.001 0.005 0.001 0.519 0
229 6 1.959 5.028 1.818 0.000 0.000 0.000 0.478 4
240 6 10.168 14.427 12.557 -0.002 0.002 0.001 0.524 0
253 6 1.362 10.984 17.643 0.003 -0.002 0.000 0.542 5
258 6 18.333 8.600 4.829 0.000 0.000 0.000 0.518 4
261 6 6.415 14.841 3.713 0.000 0.000 0.000 0.528 4
265 6 18.570 5.512 8.102 0.000 0.000 0.000 0.524 4
281 6 15.917 3.987 9.075 0.000 0.000 0.000 0.527 4
288 6 5.464 13.485 16.814 -0.004 -0.001 0.001 0.523 5
308 6 11.189 9.528 13.916 -0.004 0.002 -0.002 0.546 0
321 6 8.060 4.092 17.121 0.001 -0.003 -0.003 0.534 5
328 6 18.291 3.148 16.791 0.002 0.002 -0.005 0.519 5
348 6 18.552 8.461 8.938 0.000 0.000 0.000 0.517 4
367 6 7.423 12.265 4.497 0.000 0.000 0.000 0.525 4
370 6 0.692 9.545 7.267 0.000 0.000 0.000 0.522 4
371 6 17.681 14.375 6.069 0.000 0.000 0.000 0.520 4
375 6 22.455 5.093 17.862 0.004 -0.006 -0.004 0.528 5
379 6 10.814 8.634 11.110 -0.006 -0.003 0.000 0.489 0
393 6 0.955 5.189 12.706 -0.004 0.001 0.002 0.475 0
404 6 12.781 10.447 0.741 0.000 0.000 0.000 0.382 4
405 6 10.773 6.183 8.538 0.000 0.000 0.000 0.499 4
428 6 4.576 2.247 15.495 0.000 0.000 0.000 0.456 5
441 6 5.828 5.307 6.086 0.000 0.000 0.000 0.525 4
445 6 20.325 11.105 8.535 0.000 0.000 0.000 0.539 4
473 6 1.817 7.936 18.595 0.002 0.002 -0.003 0.442 5
485 6 11.871 13.720 7.236 0.000 0.000 0.000 0.462 4
486 6 3.413 9.643 19.542 0.002 -0.001 -0.001 0.454 5
503 6 21.159 5.710 3.814 0.000 0.000 0.000 0.511 4
505 6 18.182 7.320 16.851 0.001 0.003 0.002 0.539 5
507 6 5.002 12.260 2.515 0.000 0.000 0.000 0.505 4
533 6 18.842 10.903 14.276 -0.002 0.000 -0.004 0.531 0
534 6 1.221 16.077 2.548 0.000 0.000 0.000 0.519 4
556 6 23.552 8.639 10.387 0.001 0.005 0.002 0.540 0
579 6 24.510 2.324 4.006 0.000 0.000 0.000 0.507 4
587 6 2.059 1.675 4.517 0.000 0.000 0.000 0.516 4
593 6 20.303 1.168 10.841 -0.002 0.007 -0.002 0.418 0
594 6 5.343 12.204 14.174 -0.003 0.003 -0.002 0.516 0
597 6 4.074 2.699 6.605 0.000 0.000 0.000 0.525 4
600 6 15.419 10.838 18.311 0.005 0.002 -0.001 0.512 5
610 6 17.146 1.741 7.271 0.000 0.000 0.000 0.528 4
616 6 14.759 14.110 2.268 0.000 0.000 0.000 0.434 4
628 6 12.059 12.702 2.493 0.000 0.000 0.000 0.505 4
632 6 14.506 9.316 20.742 -0.001 -0.000 0.004 0.507 5
643 6 5.179 14.740 6.815 0.000 0.000 0.000 0.497 4
650 6 17.034 0.653 1.796 0.000 0.000 0.000 0.474 4
676 6 8.548 4.328 4.605 0.000 0.000 0.000 0.505 4
679 6 0.854 9.974 12.445 -0.001 -0.000 0.003 0.511 0
683 6 15.793 11.654 9.427 0.000 0.000 0.000 0.538 4
684 6 19.224 0.313 18.438 -0.002 -0.005 0.002 0.530 5
694 6 0.641 10.457 2.635 0.000 0.000 0.000 0.429 4
703 6 0.478 13.673 1.020 0.000 0.000 0.000 0.427 4
715 6 4.001 4.080 3.852 0.000 0.000 0.000 0.516 4
748 6 10.571 14.156 18.832 0.002 -0.006 0.001 0.544 5
753 6 13.981 12.004 12.698 -0.002 -0.001 0.002 0.524 0
766 6 21.450 14.995 13.537 0.000 0.002 -0.000 0.442 0
770 6 13.987 9.632 3.253 0.000 0.000 0.000 0.509 4
780 6 2.634 13.984 10.704 -0.004 0.003 -0.006 0.525 0
800 6 1.589 3.814 7.680 0.000 0.000 0.000 0.514 4
814 6 18.437 11.556 11.379 0.001 0.001 -0.002 0.484 0
843 6 21.704 11.233 5.375 0.000 0.000 0.000 0.553 4
855 6 2.246 12.888 19.960 -0.000 -0.002 0.002 0.643 5
868 6 18.571 9.916 18.158 0.003 0.002 0.000 0.523 5
871 6 15.768 8.794 8.287 0.000 0.000 0.000 0.518 4
891 6 20.255 1.370 16.059 -0.001 0.002 0.005 0.478 5
896 6 9.330 10.607 9.118 0.000 0.000 0.000 0.517 4
904 6 19.893 13.701 15.462 0.000 -0.003 -0.002 0.501 5
910 6 23.080 8.475 4.701 0.000 0.000 0.000 0.480 4
917 6 3.253 14.883 18.025 -0.003 -0.000 0.000 0.515 5
928 6 4.528 12.136 9.265 0.000 0.000 0.000 0.513 4
930 6 24.969 11.708 8.220 0.000 0.000 0.000 0.541 4
937 6 5.750 11.548 6.693 0.000 0.000 0.000 0.518 4
944 6 19.736 5.227 18.540 -0.000 -0.003 -0.003 0.545 5
948 6 8.760 6.811 2.687 0.000 0.000 0.000 0.488 4
965 6 5.220 13.426 19.869 0.001 -0.002 -0.002 0.517 5
985 6 2.907 15.491 0.089 0.000 0.000 0.000 0.332 4
1031 6 23.096 15.522 4.214 0.000 0.000 0.000 0.519 4
1045 6 6.261 0.027 1.607 0.000 0.000 0.000 0.467 4
1051 6 18.534 11.565 5.482 0.000 0.000 0.000 0.494 4
1057 6 15.693 14.442 12.876 0.002 0.002 -0.003 0.543 0
1062 6 3.515 10.495 15.462 -0.002 0.000 0.000 0.508 5
1064 6 9.037 6.748 18.140 0.002 -0.000 -0.001 0.510 5
1069 6 20.645 6.358 11.928 -0.001 -0.004 -0.000 0.535 0
1075 6 13.125 11.529 5.278 0.000 0.000 0.000 0.530 4
1077 6 20.627 7.054 6.363 0.000 0.000 0.000 0.476 4
1080 6 10.924 11.602 11.687 -0.000 -0.001 0.001 0.537 0
1082 6 1.547 1.635 1.313 0.000 0.000 0.000 0.371 4
1096 6 23.471 14.625 11.526 -0.002 -0.000 0.000 0.504 0
1106 6 13.762 6.455 7.950 0.000 0.000 0.000 0.522 4
1108 6 12.209 2.493 16.316 -0.003 0.002 0.004 0.549 5
1116 6 6.346 8.205 6.350 0.000 0.000 0.000 0.527 4
1119 6 8.656 0.362 3.678 0.000 0.000 0.000 0.469 4
1125 6 10.309 11.895 4.891 0.000 0.000 0.000 0.520 4
1134 6 14.445 0.765 15.784 0.004 -0.001 0.001 0.518 5
1135 6 18.860 3.223 14.086 0.001 -0.008 0.004 0.527 0
1136 6 17.970 10.214 2.120 0.000 0.000 0.000 0.412 4
1139 6 5.424 10.047 4.450 0.000 0.000 0.000 0.513 4
1142 6 24.315 12.084 18.550 0.000 -0.002 -0.002 0.526 5
1148 6 23.201 2.249 6.731 0.000 0.000 0.000 0.532 4
1163 6 2.470 7.574 12.842 -0.002 -0.005 0.001 0.429 0
1201 6 15.616 2.952 17.797 0.004 0.005 -0.003 0.531 5
1202 6 12.554 6.886 21.543 -0.001 -0.001 -0.001 0.545 5
1211 6 24.320 14.664 17.193 -0.001 -0.003 -0.000 0.501 5
1216 6 5.937 5.084 12.980 0.006 -0.000 -0.004 0.502 0
1223 6 20.244 12.558 3.223 0.000 0.000 0.000 0.479 4
1226 6 24.081 12.820 3.955 0.000 0.000 0.000 0.528 4
1230 6 19.986 15.180 4.411 0.000 0.000 0.000 0.530 4
1251 6 0.318 7.960 1.009 0.000 0.000 0.000 0.297 4
1275 6 7.049 1.749 15.530 0.003 0.000 0.003 0.432 5
1282 6 11.282 9.209 4.924 0.000 0.000 0.000 0.509 4
1283 6 17.810 12.300 16.608 0.004 -0.003 -0.005 0.461 5
1286 6 24.548 11.144 10.939 0.000 0.004 0.000 0.405 0
1287 6 22.155 10.923 11.424 0.006 0.006 0.001 0.422 0
1290 6 11.714 3.941 4.148 0.000 0.000 0.000 0.505 4
1319 6 5.509 4.091 8.774 0.000 0.000 0.000 0.485 4
1331 6 13.755 14.057 15.037 0.002 0.002 0.004 0.541 5
1333 6 14.608 16.292 10.801 -0.001 0.001 -0.002 0.532 0
1365 6 2.224 6.858 6.820 0.000 0.000 0.000 0.514 4
1372 6 6.956 16.261 19.354 -0.006 0.000 -0.005 0.499 5
1392 6 10.070 2.357 6.349 0.000 0.000 0.000 0.494 4
1403 6 23.569 0.951 1.524 0.000 0.000 0.000 0.479 4
1409 6 13.181 4.390 9.875 0.000 0.000 0.000 0.526 4
1421 6 22.895 8.657 13.317 -0.003 0.005 0.001 0.465 0
1428 6 21.158 0.926 13.456 -0.001 0.001 -0.003 0.488 0
1429 6 5.813 1.138 18.401 -0.001 0.001 0.002 0.542 5
1456 6 7.334 6.426 15.350 0.001 0.001 -0.003 0.486 5
1480 6 24.357 3.438 15.222 -0.001 0.004 -0.004 0.523 5
1481 6 8.099 14.932 16.792 -0.001 0.002 -0.003 0.546 5
1482 6 18.395 2.699 19.554 -0.000 0.004 0.004 0.549 5
1486 6 23.584 9.050 0.457 0.000 0.000 0.000 0.401 4
1493 6 8.125 4.362 7.530 0.000 0.000 0.000 0.518 4
1498 6 23.322 13.589 6.546 0.000 0.000 0.000 0.537 4
1508 6 13.308 8.882 9.701 0.000 0.000 0.000 0.479 4
1512 6 4.613 7.838 15.504 -0.002 0.002 -0.002 0.537 5
1522 6 20.883 4.350 1.186 0.000 0.000 0.000 0.471 4
1532 6 17.601 15.543 10.946 0.007 0.001 0.003 0.519 0
1539 6 15.509 7.301 18.747 -0.001 0.004 0.002 0.467 5
1562 6 18.451 5.073 2.594 0.000 0.000 0.000 0.409 4
1569 6 8.344 4.739 21.472 -0.001 -0.005 -0.002 0.633 5
1579 6 18.547 2.636 0.336 0.000 0.000 0.000 0.374 4
1617 6 23.430 6.545 7.309 0.000 0.000 0.000 0.506 4
1622 6 10.872 16.161 5.519 0.000 0.000 0.000 0.518 4
1626 6 16.471 6.769 6.390 0.000 0.000 0.000 0.508 4
1639 6 11.921 10.000 18.794 -0.002 -0.003 -0.000 0.551 5
1640 6 20.114 13.850 18.399 -0.001 -0.001 0.003 0.521 5
1641 6 2.138 3.517 16.750 0.000 -0.000 0.000 0.536 5
1649 6 22.377 2.324 11.348 -0.004 -0.001 -0.007 0.410 0
1680 6 0.332 0.976 7.033 0.000 0.000 0.000 0.533 4
1695 6 13.970 5.138 2.213 0.000 0.000 0.000 0.516 4
1713 6 8.304 12.646 10.756 -0.001 0.001 0.002 0.529 0
1721 6 16.735 14.801 15.747 0.004 0.002 0.002 0.500 5
1730 6 8.005 15.636 6.146 0.000 0.000 0.000 0.513 4
1735 6 22.580 12.870 15.834 0.001 -0.002 -0.000 0.539 5
1739 6 8.909 15.543 9.080 0.000 0.000 0.000 0.523 4
1756 6 9.971 8.479 20.378 -0.003 -0.006 -0.005 0.563 5
1769 6 8.123 16.173 14.037 0.004 0.001 0.002 0.490 0
1791 6 22.729 2.130 17.240 -0.003 -0.001 0.003 0.485 5
1794 6 7.047 8.520 17.249 0.000 -0.003 0.002 0.539 5
1802 6 12.446 7.082 14.771 -0.008 0.007 -0.003 0.511 0
1821 6 2.304 15.431 5.446 0.000 0.000 0.000 0.516 4
1859 6 19.185 10.140 20.936 -0.004 0.007 -0.001 0.528 5
1884 6 4.690 6.753 18.284 -0.002 0.008 0.001 0.543 5
1892 6 21.836 4.213 13.687 0.005 -0.002 -0.001 0.521 0
1896 6 18.573 7.339 1.995 0.000 0.000 0.000 0.402 4
1902 6 20.099 8.013 14.550 0.000 0.001 0.001 0.538 0
1910 6 0.085 5.454 9.752 0.000 0.000 0.000 0.441 4
1912 6 8.113 16.430 1.919 0.000 0.000 0.000 0.461 4
1913 6 19.923 2.070 6.058 0.000 0.000 0.000 0.408 4
1914 6 3.339 9.418 2.785 0.000 0.000 0.000 0.464 4
1915 6 1.020 4.452 4.655 0.000 0.000 0.000 0.524 4
1918 6 6.266 2.816 2.405 0.000 0.000 0.000 0.458 4
1940 6 15.899 10.986 1.243 0.000 0.000 0.000 0.385 4
1941 6 6.953 6.925 19.995 0.003 0.003 0.001 0.545 5
1956 6 6.009 10.960 18.632 0.002 -0.004 0.001 0.515 5
1959 6 10.658 8.391 16.605 0.009 0.005 -0.002 0.505 5
1973 6 21.178 1.457 20.514 -0.001 -0.003 0.003 0.532 5
1987 6 12.129 7.109 18.801 0.004 -0.005 -0.003 0.496 5
1989 6 11.363 12.575 14.447 0.001 0.000 -0.002 0.411 0
2012 6 13.466 2.049 2.432 0.000 0.000 0.000 0.517 4
2015 6 22.885 6.090 0.048 0.000 0.000 0.000 0.349 4
2029 6 17.554 4.082 5.425 0.000 0.000 0.000 0.521 4
2075 6 6.315 9.391 8.939 0.000 0.000 0.000 0.536 4
2076 6 3.826 9.502 12.767 -0.004 0.002 -0.001 0.427 0
2077 6 19.417 16.373 16.829 0.003 -0.000 0.001 0.532 5
2079 6 8.394 3.828 12.224 -0.001 -0.000 0.004 0.455 0
2080 6 22.413 10.726 2.585 0.000 0.000 0.000 0.474 4
2090 6 6.413 2.284 10.785 0.003 -0.002 0.005 0.543 0
2095 6 24.246 2.299 20.552 0.004 0.001 0.000 0.494 5
2104 6 15.429 7.043 15.735 0.002 -0.002 -0.002 0.522 5
2111 6 18.553 15.853 13.712 0.001 0.001 -0.004 0.508 0
2139 6 21.669 2.732 3.844 0.000 0.000 0.000 0.507 4
2143 6 5.975 7.719 11.325 0.007 -0.003 0.004 0.534 0
2151 6 5.408 16.257 1.203 0.000 0.000 0.000 0.442 4
2153 6 9.308 2.784 19.620 -0.001 0.004 -0.000 0.492 5
2159 6 22.581 4.329 9.026 0.000 0.000 0.000 0.545 4
2173 6 7.201 12.258 0.330 0.000 0.000 0.000 0.346 4
2188 6 18.398 8.412 12.146 0.000 0.001 0.000 0.529 0
2192 6 2.915 4.857 10.411 0.001 -0.002 -0.005 0.523 0
2202 6 1.919 11.051 10.015 0.004 0.004 -0.006 0.504 0
2211 6 19.058 14.885 1.442 0.000 0.000 0.000 0.453 4
2215 6 4.671 6.791 8.614 0.000 0.000 0.000 0.502 4
2251 6 22.669 9.547 7.480 0.000 0.000 0.000 0.531 4
2264 6 10.144 3.927 10.039 0.000 -0.007 0.000 0.476 0
2270 6 9.165 13.689 2.524 0.000 0.000 0.000 0.537 4
2277 6 14.343 4.965 5.253 0.000 0.000 0.000 0.545 4
2290 6 13.698 5.205 17.018 0.002 -0.003 0.003 0.530 5
2292 6 14.302 13.546 7.620 0.000 0.000 0.000 0.461 4
2297 6 13.578 2.515 13.389 -0.001 -0.004 0.001 0.528 0
2310 6 4.646 0.533 13.015 -0.004 0.001 -0.003 0.455 0
2318 6 19.974 3.928 10.068 0.003 -0.001 -0.003 0.515 0
2323 6 20.376 13.949 7.413 0.000 0.000 0.000 0.514 4
2331 6 23.499 9.466 17.862 -0.005 0.002 -0.006 0.495 5
2340 6 8.303 9.278 4.515 0.000 0.000 0.000 0.531 4
2342 6 11.754 15.203 9.980 0.000 0.000 0.000 0.551 4
2348 6 11.440 15.689 2.418 0.000 0.000 0.000 0.486 4
2353 6 22.622 13.449 20.427 -0.002 -0.003 -0.003 0.490 5
2392 6 8.371 4.356 1.319 0.000 0.000 0.000 0.391 4
2396 6 21.377 11.088 19.256 0.003 -0.002 -0.007 0.533 5
2405 6 9.181 11.263 18.840 -0.002 -0.001 -0.002 0.560 5
2408 6 11.099 8.637 2.105 0.000 0.000 0.000 0.512 4
2414 6 12.754 15.921 12.854 0.007 -0.000 0.001 0.528 0
2418 6 21.298 7.332 9.170 0.000 0.000 0.000 0.512 4
2426 6 9.567 3.093 14.769 0.004 0.004 -0.004 0.508 0
2428 6 5.095 4.932 16.149 0.004 -0.000 -0.002 0.524 5
2436 6 7.582 11.631 16.450 -0.007 -0.001 -0.006 0.530 5
2447 6 12.411 1.676 8.415 0.000 0.000 0.000 0.489 4
2450 6 4.186 7.111 4.437 0.000 0.000 0.000 0.515 4
2461 6 3.412 2.124 9.689 0.000 0.000 0.000 0.541 4
2478 6 8.210 9.296 1.292 0.000 0.000 0.000 0.378 4
2490 6 20.175 5.383 15.752 -0.003 -0.009 0.006 0.526 5
2502 6 14.241 5.045 20.176 0.002 0.004 -0.001 0.463 5
2503 6 0.600 0.680 20.609 0.003 0.001 0.002 0.649 5
2506 6 2.220 13.355 3.331 0.000 0.000 0.000 0.496 4
2526 6 13.326 6.738 11.950 -0.002 -0.003 -0.002 0.551 0
2547 6 8.615 7.968 13.087 -0.000 -0.001 0.003 0.540 0
2552 6 11.641 4.596 13.620 -0.000 -0.001 -0.000 0.502 0
2555 6 16.242 15.523 8.370 0.000 0.000 0.000 0.531 4
2564 6 17.778 5.994 10.724 0.001 0.002 0.001 0.518 0
2567 6 8.748 12.909 7.403 0.000 0.000 0.000 0.540 4
2586 6 16.487 9.719 15.871 0.001 -0.000 0.001 0.533 5
2600 6 21.689 15.792 9.364 0.000 0.000 0.000 0.524 4
2608 6 9.763 0.406 16.056 -0.006 0.000 0.002 0.521 5
2623 6 4.514 2.307 20.750 0.000 -0.002 -0.002 0.546 5
2650 6 15.252 4.276 11.910 0.003 -0.002 -0.006 0.514 0
2660 6 5.977 4.221 19.084 0.001 0.003 -0.008 0.513 5
2661 6 15.973 12.074 4.056 0.000 0.000 0.000 0.522 4
2666 6 7.972 10.882 13.611 -0.005 -0.004 0.003 0.492 0
2684 6 11.795 9.987 7.682 0.000 0.000 0.000 0.483 4
2695 6 10.805 11.311 16.411 -0.004 0.002 -0.006 0.420 5
2697 6 0.699 13.143 5.766 0.000 0.000 0.000 0.492 4
2712 6 2.714 13.161 15.754 0.002 0.006 -0.002 0.536 5
2714 6 17.596 12.661 19.711 0.003 -0.004 -0.008 0.439 5
2726 6 8.533 7.872 9.962 0.000 0.000 0.000 0.475 4
2728 6 23.825 6.019 12.390 0.000 -0.003 -0.001 0.536 0
2746 6 15.803 7.070 3.501 0.000 0.000 0.000 0.539 4
2751 6 15.254 2.094 5.012 0.000 0.000 0.000 0.515 4
2763 6 20.749 4.113 6.863 0.000 0.000 0.000 0.420 4
2810 6 11.159 5.512 1.540 0.000 0.000 0.000 0.518 4
2815 6 6.167 10.752 11.398 0.006 -0.010 -0.000 0.486 0
2816 6 22.459 12.882 9.426 0.000 0.000 0.000 0.544 4
2840 6 14.467 1.773 10.702 0.001 -0.001 0.001 0.501 0
2845 6 15.548 3.234 0.413 0.000 0.000 0.000 0.242 4
2886 6 2.665 10.917 5.336 0.000 0.000 0.000 0.536 4
2896 6 13.031 7.237 0.058 0.000 0.000 0.000 0.351 4
2899 6 21.052 10.224 16.491 -0.005 -0.000 0.000 0.537 5
2906 6 9.394 6.885 5.775 0.000 0.000 0.000 0.499 4
2909 6 12.843 12.198 9.698 0.000 0.000 0.000 0.508 4
2915 6 18.165 13.375 9.136 0.000 0.000 0.000 0.523 4
2919 6 22.236 4.699 20.700 0.004 0.003 0.001 0.506 5
2921 6 2.901 4.444 19.352 0.007 -0.002 -0.003 0.562 5
2929 6 11.083 4.430 18.083 0.004 -0.001 0.002 0.529 5
2953 6 5.659 13.708 11.369 -0.006 0.001 0.003 0.473 0
2957 6 10.337 2.316 2.072 0.000 0.000 0.000 0.506 4
2958 6 18.565 15.221 20.628 -0.000 -0.003 -0.002 0.520 5
2963 6 13.520 16.293 6.656 0.000 0.000 0.000 0.512 4
2971 6 1.533 6.654 21.288 -0.001 0.005 0.002 0.682 5
2975 6 9.848 11.476 0.685 0.000 0.000 0.000 0.344 4
3007 6 11.746 3.788 21.247 0.001 0.001 0.001 0.549 5
3019 6 15.992 6.295 0.436 0.000 0.000 0.000 0.258 4
3029 6 22.604 7.412 15.929 -0.001 -0.000 -0.006 0.528 5
3041 6 16.254 6.690 13.063 -0.003 -0.003 -0.002 0.551 0
3047 4 3.306 7.185 8.129 0.000 0.000 0.000 -0.316 4
3048 4 7.157 16.296 0.607 0.000 0.000 0.000 -0.281 4
3064 4 15.850 10.268 8.682 0.000 0.000 0.000 -0.393 4
3072 4 19.105 6.838 15.529 -0.006 -0.002 -0.001 -0.389 5
3085 4 19.576 1.209 0.494 0.000 0.000 0.000 -0.361 4
3098 4 18.080 7.744 10.445 -0.008 0.008 0.004 -0.402 0
3102 4 12.572 1.644 17.716 0.001 0.000 0.006 -0.407 5
3115 4 2.473 0.979 2.809 0.000 0.000 0.000 -0.350 4
3123 4 4.577 14.962 0.280 0.000 0.000 0.000 -0.215 4
3142 4 17.311 15.278 12.657 0.012 -0.001 -0.000 -0.407 0
3157 4 3.469 7.909 18.732 0.005 -0.001 -0.002 -0.380 5
3162 4 4.402 6.395 16.557 -0.006 -0.003 0.005 -0.401 5
3163 4 22.496 9.785 1.311 0.000 0.000 0.000 -0.308 4
3169 4 23.958 5.499 6.280 0.000 0.000 0.000 -0.327 4
3180 4 6.713 14.700 20.118 0.000 0.004 -0.007 -0.394 5
3185 4 4.812 5.447 4.598 0.000 0.000 0.000 -0.404 4
3193 4 17.459 0.270 11.352 -0.003 0.003 0.008 -0.380 0
3201 4 5.449 9.463 12.017 0.002 0.008 0.000 -0.385 0
3214 4 8.536 14.663 7.685 0.000 0.000 0.000 -0.389 4
3228 4 7.628 11.317 11.837 -0.002 0.007 -0.000 -0.405 0
3230 4 7.116 10.524 4.325 0.000 0.000 0.000 -0.400 4
3233 4 15.828 12.394 0.168 0.000 0.000 0.000 -0.126 4
3242 4 20.293 0.617 7.042 0.000 0.000 0.000 -0.404 4
3245 4 13.767 13.842 16.688 0.000 0.003 0.003 -0.391 5
3247 4 8.032 8.212 5.812 0.000 0.000 0.000 -0.374 4
3298 4 18.364 2.600 6.177 0.000 0.000 0.000 -0.395 4
3305 4 19.434 14.488 5.944 0.000 0.000 0.000 -0.388 4
3308 4 9.108 1.643 2.973 0.000 0.000 0.000 -0.319 4
3336 4 23.913 14.198 3.052 0.000 0.000 0.000 -0.376 4
3338 4 7.552 1.403 9.958 0.000 0.000 0.000 -0.375 4
3340 4 12.043 14.004 18.555 -0.005 0.010 0.001 -0.410 5
3345 4 22.921 12.562 5.265 0.000 0.000 0.000 -0.426 4
3366 4 8.217 5.686 16.965 0.005 0.005 -0.003 -0.378 5
3375 4 5.569 16.078 7.779 0.000 0.000 0.000 -0.372 4
3376 4 17.929 9.044 16.853 0.003 -0.002 -0.007 -0.412 5
3379 4 1.032 9.254 17.517 -0.003 0.007 0.005 -0.389 5
3383 4 2.379 11.492 16.187 0.006 -0.007 0.008 -0.375 5
3390 4 4.868 4.135 7.015 0.000 0.000 0.000 -0.379 4
3405 4 10.260 10.057 19.411 -0.000 -0.006 -0.002 -0.414 5
3406 4 1.466 12.902 10.425 0.002 0.000 0.000 -0.390 0
3410 4 2.151 15.140 3.687 0.000 0.000 0.000 -0.387 4
3414 4 0.581 11.324 13.259 0.005 0.003 0.001 -0.334 0
3418 4 14.582 3.348 19.114 0.006 0.005 -0.006 -0.374 5
3434 4 10.234 10.258 7.839 0.000 0.000 0.000 -0.333 4
3437 4 18.963 6.668 18.360 0.005 0.011 -0.002 -0.405 5
3440 4 18.661 14.109 19.287 -0.003 -0.001 0.002 -0.374 5
3449 4 8.016 5.952 1.288 0.000 0.000 0.000 -0.276 4
3452 4 12.212 8.715 0.882 0.000 0.000 0.000 -0.362 4
3469 4 2.302 11.362 18.889 0.003 0.003 -0.002 -0.385 5
3473 4 2.520 15.125 11.882 -0.001 -0.002 0.003 -0.406 0
3487 4 10.449 10.371 10.688 -0.000 0.005 0.010 -0.417 0
3491 4 12.700 8.780 14.115 -0.004 0.002 -0.004 -0.406 0
3525 4 10.119 2.337 10.275 -0.004 -0.008 0.004 -0.395 0
3533 4 22.644 6.835 3.661 0.000 0.000 0.000 -0.379 4
3537 4 0.798 14.664 6.172 0.000 0.000 0.000 -0.392 4
3581 4 19.840 1.638 14.546 -0.006 -0.006 -0.001 -0.385 0
3589 4 15.533 8.674 15.024 -0.000 -0.006 -0.004 -0.380 5
3591 4 10.205 12.816 6.676 0.000 0.000 0.000 -0.348 4
3603 4 5.536 12.412 0.848 0.000 0.000 0.000 -0.223 4
3607 4 15.603 3.655 5.283 0.000 0.000 0.000 -0.375 4
3619 4 16.621 6.868 19.741 0.002 0.004 0.001 -0.304 5
3623 4 5.889 6.689 7.000 0.000 0.000 0.000 -0.408 4
3627 4 17.170 12.124 10.119 0.001 0.006 -0.003 -0.393 0
3655 4 3.813 14.895 6.020 0.000 0.000 0.000 -0.327 4
3689 4 23.596 15.377 5.892 0.000 0.000 0.000 -0.386 4
3701 4 8.944 8.141 17.242 -0.003 0.004 -0.005 -0.363 5
3702 4 21.674 0.799 16.706 0.006 -0.005 -0.001 -0.413 5
3723 4 0.834 3.542 13.044 0.000 0.004 -0.004 -0.408 0
3724 4 20.913 10.498 20.795 -0.003 -0.002 -0.007 -0.399 5
3727 4 24.407 7.183 15.897 -0.003 0.007 0.004 -0.406 5
3731 4 13.333 2.106 15.075 0.008 0.001 -0.001 -0.395 5
3737 4 2.015 12.545 4.956 0.000 0.000 0.000 -0.400 4
3739 4 7.586 11.235 19.599 -0.003 0.004 -0.004 -0.405 5
3743 4 4.457 5.095 19.058 0.000 0.008 -0.003 -0.439 5
3747 4 3.812 7.857 2.596 0.000 0.000 0.000 -0.373 4
3761 4 8.122 15.104 15.145 -0.005 -0.006 -0.001 -0.333 5
3782 4 24.981 12.915 7.065 0.000 0.000 0.000 -0.390 4
3784 4 16.850 0.559 3.325 0.000 0.000 0.000 -0.349 4
3786 4 17.212 3.054 18.185 0.007 0.002 -0.001 -0.382 5
3788 4 22.991 15.499 12.903 0.004 -0.001 -0.000 -0.411 0
3794 4 8.300 6.674 14.162 0.003 0.005 -0.006 -0.311 0
3796 4 0.746 12.490 2.468 0.000 0.000 0.000 -0.370 4
3800 4 0.802 4.270 15.702 -0.001 0.001 0.006 -0.414 5
3803 4 18.437 10.370 12.401 0.001 -0.004 -0.004 -0.373 0
3804 4 23.940 16.156 17.507 -0.002 -0.004 -0.008 -0.324 5
3817 4 18.620 14.472 10.257 -0.005 -0.006 0.007 -0.308 0
3825 4 14.403 7.863 8.945 0.000 0.000 0.000 -0.409 4
3849 4 19.530 4.400 16.999 -0.004 -0.007 -0.007 -0.416 5
3855 4 11.194 16.476 1.137 0.000 0.000 0.000 -0.335 4
3867 4 21.589 10.669 7.115 0.000 0.000 0.000 -0.395 4
3870 4 10.318 8.409 12.787 0.005 -0.006 0.000 -0.373 0
3874 4 21.863 3.257 0.403 0.000 0.000 0.000 -0.258 4
3879 4 24.803 8.702 5.045 0.000 0.000 0.000 -0.407 4
3889 4 22.229 11.715 12.796 0.004 0.005 0.006 -0.421 0
3891 4 17.168 9.750 0.630 0.000 0.000 0.000 -0.234 4
3894 4 23.965 6.910 10.722 -0.003 0.003 -0.000 -0.361 0
3939 4 5.922 0.982 11.910 -0.001 -0.001 -0.003 -0.380 0
3942 4 9.197 4.666 11.104 -0.014 0.003 0.012 -0.341 0
3944 4 2.841 2.722 7.993 0.000 0.000 0.000 -0.392 4
3947 4 13.499 0.840 1.368 0.000 0.000 0.000 -0.329 4
3950 4 18.432 8.945 2.986 0.000 0.000 0.000 -0.358 4
3951 4 19.668 7.097 8.147 0.000 0.000 0.000 -0.393 4
3961 4 24.470 2.080 0.508 0.000 0.000 0.000 -0.218 4
3969 4 8.046 0.490 15.965 0.012 0.002 -0.004 -0.370 5
3980 4 15.040 4.148 16.551 -0.001 0.002 0.004 -0.404 5
3989 4 8.773 7.470 19.724 0.005 0.002 0.002 -0.374 5
4000 4 14.549 15.164 19.174 -0.003 -0.000 0.002 -0.399 5
4006 4 9.610 14.937 17.572 -0.000 -0.004 0.000 -0.431 5
4010 4 10.982 0.512 12.418 -0.001 0.002 -0.001 -0.378 0
4015 4 22.073 3.457 17.550 -0.000 -0.001 -0.015 -0.340 5
4034 4 24.278 2.198 16.716 -0.001 -0.004 -0.004 -0.373 5
4046 4 8.057 9.235 9.105 0.000 0.000 0.000 -0.387 4
4047 4 2.736 3.169 10.938 0.001 0.010 -0.000 -0.403 0
4054 4 10.886 14.123 2.555 0.000 0.000 0.000 -0.404 4
4066 4 19.867 9.689 14.980 0.003 -0.002 -0.002 -0.393 5
4072 4 15.442 1.044 17.276 0.000 -0.001 -0.000 -0.386 5
4082 4 14.466 12.246 18.729 -0.005 -0.001 -0.013 -0.384 5
4087 4 12.861 10.291 9.022 0.000 0.000 0.000 -0.416 4
4089 4 1.755 4.816 6.451 0.000 0.000 0.000 -0.351 4
4099 4 11.548 2.230 7.201 0.000 0.000 0.000 -0.325 4
4136 4 3.578 13.045 2.652 0.000 0.000 0.000 -0.314 4
4137 4 19.384 9.831 8.824 0.000 0.000 0.000 -0.364 4
4151 4 9.754 10.251 4.924 0.000 0.000 0.000 -0.369 4
4177 4 18.053 2.820 12.715 -0.001 -0.002 0.001 -0.329 0
4187 4 11.535 11.630 1.359 0.000 0.000 0.000 -0.357 4
4190 4 21.086 7.259 10.710 -0.003 0.007 -0.000 -0.327 0
4191 4 14.975 3.721 13.409 0.001 -0.009 0.011 -0.403 0
4193 4 17.501 3.433 15.355 -0.003 0.001 -0.007 -0.393 5
4211 4 20.124 4.406 14.274 0.004 -0.003 -0.005 -0.408 0
4229 4 12.658 5.126 21.138 0.004 0.002 -0.012 -0.395 5
4243 4 22.225 9.961 4.499 0.000 0.000 0.000 -0.395 4
4253 4 24.171 12.608 14.911 -0.007 0.006 0.001 -0.405 0
4258 4 3.392 2.645 4.961 0.000 0.000 0.000 -0.385 4
4262 4 16.281 2.836 8.040 0.000 0.000 0.000 -0.350 4
4268 4 5.495 12.271 20.935 -0.005 -0.011 -0.008 -0.260 5
4280 4 5.119 2.516 9.782 0.000 0.000 0.000 -0.384 4
4303 4 11.559 7.659 20.391 -0.001 0.001 0.002 -0.414 5
4315 4 12.285 5.213 2.689 0.000 0.000 0.000 -0.360 4
4316 4 0.940 7.672 19.910 0.005 -0.003 0.001 -0.465 5
4322 4 13.390 13.267 21.035 0.001 0.003 -0.000 -0.373 5
4325 4 23.913 9.929 14.224 -0.004 0.004 0.001 -0.369 0
4327 4 20.182 10.479 18.008 -0.005 0.007 -0.001 -0.408 5
4333 4 12.659 12.118 11.291 0.003 0.007 -0.004 -0.391 0
4349 4 6.100 9.748 7.353 0.000 0.000 0.000 -0.369 4
4356 4 1.618 0.630 5.774 0.000 0.000 0.000 -0.400 4
4358 4 23.514 7.321 1.078 0.000 0.000 0.000 -0.354 4
4367 4 9.717 12.667 19.594 -0.005 -0.008 0.001 -0.375 5
4376 4 15.525 14.541 14.558 -0.002 -0.002 0.004 -0.386 0
4381 4 19.621 4.296 8.268 0.000 0.000 0.000 -0.403 4
4394 4 7.674 16.357 9.961 0.000 0.000 0.000 -0.398 4
4398 4 11.488 4.715 9.524 0.000 0.000 0.000 -0.396 4
4411 4 23.116 2.520 5.128 0.000 0.000 0.000 -0.386 4
4414 4 19.505 12.602 8.332 0.000 0.000 0.000 -0.403 4
4424 4 11.087 11.156 13.373 0.003 -0.001 -0.002 -0.417 0
4427 4 15.320 12.931 12.439 -0.008 0.005 0.005 -0.315 0
4451 4 21.678 6.088 16.459 0.009 0.009 0.006 -0.387 5
4452 4 5.349 8.425 4.981 0.000 0.000 0.000 -0.409 4
4473 4 24.818 2.891 7.098 0.000 0.000 0.000 -0.375 4
4478 4 18.894 1.410 16.930 0.002 0.007 0.004 -0.399 5
4479 4 1.454 3.499 0.885 0.000 0.000 0.000 -0.219 4
4489 4 4.828 3.386 2.653 0.000 0.000 0.000 -0.325 4
4517 4 10.392 7.028 2.176 0.000 0.000 0.000 -0.380 4
4538 4 19.918 0.295 12.223 0.005 -0.005 0.001 -0.369 0
4539 4 2.090 9.968 3.638 0.000 0.000 0.000 -0.372 4
4544 4 7.183 13.285 16.737 -0.008 -0.001 -0.003 -0.379 5
4558 4 4.570 13.130 15.393 0.005 -0.012 -0.002 -0.400 5
4571 4 11.748 2.537 2.950 0.000 0.000 0.000 -0.370 4
4575 4 6.105 13.240 3.542 0.000 0.000 0.000 -0.399 4
4577 4 5.125 12.750 7.665 0.000 0.000 0.000 -0.334 4
4580 4 12.828 4.303 5.141 0.000 0.000 0.000 -0.335 4
4581 4 15.934 2.963 10.735 -0.004 0.001 -0.001 -0.413 0
4591 4 21.893 2.488 12.871 -0.002 0.007 -0.001 -0.369 0
4604 4 5.825 10.894 9.797 0.000 0.000 0.000 -0.404 4
4611 4 21.448 4.179 3.080 0.000 0.000 0.000 -0.384 4
4613 4 9.357 15.620 5.340 0.000 0.000 0.000 -0.337 4
4618 4 12.936 16.339 9.874 0.000 0.000 0.000 -0.389 4
4628 4 6.425 7.932 15.862 0.004 -0.000 0.002 -0.370 5
4687 4 22.097 3.440 7.529 0.000 0.000 0.000 -0.414 4
4693 4 22.240 13.384 7.763 0.000 0.000 0.000 -0.398 4
4709 4 5.605 7.920 9.746 0.000 0.000 0.000 -0.417 4
4715 4 0.161 9.560 1.059 0.000 0.000 0.000 -0.264 4
4726 4 20.602 15.178 8.333 0.000 0.000 0.000 -0.303 4
4735 4 9.305 11.542 17.049 -0.004 -0.004 -0.006 -0.397 5
4740 4 5.432 13.112 12.810 0.001 0.008 -0.001 -0.359 0
4742 4 6.205 7.486 18.513 -0.006 0.004 -0.000 -0.419 5
4747 4 13.789 5.169 11.209 -0.007 -0.001 0.002 -0.411 0
4762 4 15.167 15.651 1.383 0.000 0.000 0.000 -0.251 4
4770 4 3.793 3.638 15.994 0.000 -0.009 -0.001 -0.384 5
4772 4 16.725 13.449 16.668 -0.000 0.013 -0.007 -0.296 5
4777 4 22.457 7.956 6.413 0.000 0.000 0.000 -0.391 4
4778 4 7.069 4.426 8.712 0.000 0.000 0.000 -0.363 4
4798 4 4.672 10.403 2.889 0.000 0.000 0.000 -0.381 4
4823 4 14.374 6.380 0.877 0.000 0.000 0.000 -0.346 4
4831 4 21.533 11.511 9.897 0.000 0.000 0.000 -0.384 4
4837 4 7.195 16.290 17.475 -0.002 -0.005 0.002 -0.396 5
4839 4 7.069 11.644 14.748 0.000 0.016 0.004 -0.390 0
4850 4 18.673 15.058 15.537 -0.009 0.001 0.002 -0.408 5
4851 4 1.059 8.369 13.392 0.001 -0.003 0.008 -0.383 0
4855 4 14.442 11.108 4.512 0.000 0.000 0.000 -0.395 4
4871 4 0.615 2.698 4.328 0.000 0.000 0.000 -0.400 4
4877 4 22.228 8.917 16.921 0.009 0.001 -0.002 -0.409 5
4891 4 1.715 4.314 18.122 0.001 0.001 -0.006 -0.413 5
4892 4 16.028 15.607 10.054 -0.009 -0.011 -0.002 -0.407 0
4896 4 5.142 1.352 6.883 0.000 0.000 0.000 -0.333 4
4909 4 15.071 9.176 19.210 0.004 0.000 0.001 -0.359 5
4913 4 20.460 1.734 4.463 0.000 0.000 0.000 -0.388 4
4919 4 21.483 5.283 19.239 0.009 0.005 -0.005 -0.392 5
4924 4 3.612 7.867 13.843 0.000 -0.006 -0.002 -0.357 0
4928 4 22.668 2.714 20.540 0.014 0.002 0.001 -0.380 5
4955 4 12.668 0.102 8.504 0.000 0.000 0.000 -0.321 4
4975 4 16.970 8.011 7.746 0.000 0.000 0.000 -0.382 4
4979 4 18.190 10.068 5.632 0.000 0.000 0.000 -0.335 4
4982 4 6.261 4.225 17.486 0.009 -0.004 0.007 -0.380 5
4989 4 24.024 12.789 20.080 -0.008 0.006 0.001 -0.287 5
5001 4 20.197 15.739 12.845 0.002 0.010 0.006 -0.408 0
5006 4 21.263 12.027 2.301 0.000 0.000 0.000 -0.320 4
5019 4 9.753 3.617 20.974 -0.005 -0.005 0.003 -0.381 5
5038 4 19.532 12.469 14.176 0.003 0.000 -0.002 -0.407 0
5039 4 17.292 12.599 5.325 0.000 0.000 0.000 -0.375 4
5042 4 17.371 14.402 7.852 0.000 0.000 0.000 -0.406 4
5043 4 23.220 0.498 7.056 0.000 0.000 0.000 -0.413 4
5055 4 19.186 3.874 1.140 0.000 0.000 0.000 -0.363 4
5061 4 12.197 6.070 13.203 0.003 -0.001 0.007 -0.382 0
5062 4 20.479 0.026 9.618 0.000 0.000 0.000 -0.395 4
5091 4 24.657 15.930 1.057 0.000 0.000 0.000 -0.246 4
5095 4 19.735 7.872 5.383 0.000 0.000 0.000 -0.316 4
5099 4 4.267 1.312 14.225 -0.001 -0.007 0.001 -0.363 0
5109 4 11.549 15.208 11.888 0.002 -0.007 0.003 -0.386 0
5118 4 23.246 5.838 21.465 -0.000 -0.003 -0.001 -0.319 5
5138 4 20.233 15.651 18.082 0.009 -0.001 0.004 -0.398 5
5140 4 23.458 13.370 17.404 0.002 0.003 0.002 -0.396 5
5145 4 11.832 12.093 4.121 0.000 0.000 0.000 -0.408 4
5151 4 14.749 5.672 3.657 0.000 0.000 0.000 -0.371 4
5172 4 2.264 4.665 3.368 0.000 0.000 0.000 -0.374 4
5175 4 11.899 3.506 19.438 0.007 -0.001 -0.000 -0.391 5
5182 4 17.316 11.426 18.292 -0.001 0.004 0.001 -0.383 5
5183 4 4.860 10.036 19.091 -0.004 -0.002 -0.004 -0.319 5
5185 4 5.305 12.565 18.295 0.001 0.008 -0.002 -0.383 5
5189 4 17.633 0.541 8.502 0.000 0.000 0.000 -0.411 4
5194 4 1.648 13.525 14.219 -0.004 0.008 0.004 -0.377 0
5200 4 6.359 1.650 1.127 0.000 0.000 0.000 -0.277 4
5202 4 7.400 4.364 6.024 0.000 0.000 0.000 -0.400 4
5203 4 17.477 11.143 15.189 -0.007 -0.006 0.002 -0.359 5
5206 4 10.670 7.739 5.494 0.000 0.000 0.000 -0.316 4
5235 4 24.221 5.373 18.046 -0.005 0.006 -0.001 -0.421 5
5240 4 2.870 16.092 14.776 -0.009 0.004 0.002 -0.366 0
5253 4 14.730 8.320 3.317 0.000 0.000 0.000 -0.332 4
5258 4 23.070 1.830 2.785 0.000 0.000 0.000 -0.328 4
5261 4 8.991 2.676 7.580 0.000 0.000 0.000 -0.383 4
5268 4 21.746 3.560 10.422 -0.004 -0.001 -0.004 -0.421 0
5275 4 6.190 7.742 21.239 -0.007 -0.000 -0.001 -0.441 5
5289 4 8.865 5.933 4.311 0.000 0.000 0.000 -0.394 4
5296 4 4.044 9.183 16.041 0.003 -0.005 0.005 -0.345 5
5330 4 1.594 4.917 9.223 0.000 0.000 0.000 -0.387 4
5332 4 24.224 7.381 13.244 0.003 0.007 -0.004 -0.376 0