ITEM: TIMESTEP
1000000
ITEM: NUMBER OF ATOMS
37359
ITEM: BOX BOUNDS pp pp pp
0.000000 100.000000
0.000000 50.000000
0.000000 110.000000
ITEM: ATOMS id type x y z vx vy vz q mask
3 6 23.554 11.456 13.657 -0.002 -0.002 -0.004 0.501 0
27 6 17.917 7.358 20.183 -0.003 0.004 0.004 0.533 5
33 6 23.860 6.823 2.692 0.000 0.000 0.000 0.488 4
36 6 14.303 15.363 17.592 0.001 0.002 0.002 0.533 5
46 6 4.350 6.981 1.181 0.000 0.000 0.000 0.391 4
65 6 14.314 8.949 13.810 0.006 0.003 -0.001 0.536 0
86 6 14.534 13.554 20.013 0.001 -0.000 -0.002 0.545 5
87 6 12.851 12.786 17.850 0.002 -0.001 0.007 0.531 5
98 6 1.914 14.985 13.651 0.001 -0.001 -0.002 0.509 0
101 6 1.349 2.441 11.736 -0.005 -0.000 -0.002 0.541 0
108 6 9.025 1.515 8.997 0.000 0.000 0.000 0.463 4
109 6 6.666 11.689 21.310 -0.002 0.002 0.003 0.527 5
110 6 16.252 16.665 2.046 0.000 0.000 0.000 0.367 4
113 6 13.046 2.288 19.319 -0.001 0.003 -0.004 0.482 5
116 6 20.477 12.668 13.001 0.000 -0.001 0.003 0.412 0
129 6 15.746 4.229 15.073 0.003 0.002 0.008 0.533 5
135 6 9.423 13.166 21.395 0.002 -0.000 -0.003 0.522 5
151 6 17.594 2.071 11.467 0.005 0.001 -0.001 0.522 0
197 6 2.577 1.250 18.572 0.007 -0.003 -0.006 0.555 5
208 6 21.202 1.599 0.068 0.000 0.000 0.000 0.355 4
222 6 0.472 0.223 13.976 0.003 -0.004 0.003 0.529 0
224 6 10.597 2.018 12.117 0.004 0.001 -0.000 0.532 0
229 6 1.959 5.028 1.818 0.000 0.000 0.000 0.478 4
240 6 10.041 14.458 12.547 0.001 -0.003 0.000 0.529 0
253 6 1.244 11.122 17.846 0.005 -0.001 0.006 0.542 5
258 6 18.333 8.600 4.829 0.000 0.000 0.000 0.518 4
261 6 6.415 14.841 3.713 0.000 0.000 0.000 0.528 4
265 6 18.570 5.512 8.102 0.000 0.000 0.000 0.518 4
281 6 15.917 3.987 9.075 0.000 0.000 0.000 0.524 4
288 6 5.297 13.490 16.971 0.002 0.001 0.001 0.524 5
308 6 11.034 9.491 13.964 0.001 0.002 0.000 0.539 0
321 6 7.852 3.990 16.964 0.000 0.002 0.003 0.547 5
328 6 18.021 3.168 16.871 -0.005 -0.003 -0.001 0.522 5
348 6 18.552 8.461 8.938 0.000 0.000 0.000 0.528 4
367 6 7.423 12.265 4.497 0.000 0.000 0.000 0.526 4
370 6 0.692 9.545 7.267 0.000 0.000 0.000 0.521 4
371 6 17.681 14.375 6.069 0.000 0.000 0.000 0.521 4
375 6 22.251 5.062 17.954 -0.004 0.006 0.002 0.551 5
379 6 10.803 8.611 11.129 -0.001 0.007 -0.000 0.494 0
393 6 0.913 5.243 12.552 -0.000 -0.001 0.001 0.484 0
404 6 12.781 10.447 0.741 0.000 0.000 0.000 0.383 4
405 6 10.773 6.183 8.538 0.000 0.000 0.000 0.501 4
428 6 4.272 1.984 15.627 0.001 0.001 -0.002 0.475 5
441 6 5.828 5.307 6.086 0.000 0.000 0.000 0.525 4
445 6 20.325 11.105 8.535 0.000 0.000 0.000 0.542 4
473 6 1.686 8.099 18.963 0.001 0.004 -0.003 0.509 5
485 6 11.871 13.720 7.236 0.000 0.000 0.000 0.462 4
486 6 3.255 10.396 19.884 -0.001 -0.001 -0.006 0.517 5
503 6 21.159 5.710 3.814 0.000 0.000 0.000 0.512 4
505 6 17.969 7.196 17.229 -0.005 -0.004 -0.003 0.543 5
507 6 5.002 12.260 2.515 0.000 0.000 0.000 0.504 4
533 6 18.719 10.746 14.399 0.001 -0.002 0.002 0.539 0
534 6 1.221 16.077 2.548 0.000 0.000 0.000 0.519 4
556 6 23.512 8.647 10.440 0.001 0.002 -0.003 0.530 0
579 6 24.510 2.324 4.006 0.000 0.000 0.000 0.508 4
587 6 2.059 1.675 4.517 0.000 0.000 0.000 0.516 4
593 6 20.175 1.074 10.882 0.000 -0.002 0.004 0.428 0
594 6 5.162 12.188 14.264 0.004 0.001 0.000 0.508 0
597 6 4.074 2.699 6.605 0.000 0.000 0.000 0.525 4
600 6 15.336 10.832 18.542 0.001 -0.004 -0.000 0.480 5
610 6 17.146 1.741 7.271 0.000 0.000 0.000 0.529 4
616 6 14.759 14.110 2.268 0.000 0.000 0.000 0.435 4
628 6 12.059 12.702 2.493 0.000 0.000 0.000 0.505 4
632 6 14.056 9.255 20.883 0.002 0.001 0.002 0.518 5
643 6 5.179 14.740 6.815 0.000 0.000 0.000 0.497 4
650 6 17.034 0.653 1.796 0.000 0.000 0.000 0.475 4
676 6 8.548 4.328 4.605 0.000 0.000 0.000 0.506 4
679 6 0.920 9.919 12.399 0.002 0.001 0.000 0.503 0
683 6 15.793 11.654 9.427 0.000 0.000 0.000 0.533 4
684 6 18.916 0.332 18.477 0.002 -0.002 -0.004 0.470 5
694 6 0.641 10.457 2.635 0.000 0.000 0.000 0.429 4
703 6 0.478 13.673 1.020 0.000 0.000 0.000 0.428 4
715 6 4.001 4.080 3.852 0.000 0.000 0.000 0.516 4
748 6 10.387 14.048 18.873 0.003 -0.004 0.004 0.523 5
753 6 13.945 11.871 12.724 -0.002 0.001 0.002 0.513 0
766 6 21.304 14.753 13.601 -0.003 0.001 -0.002 0.421 0
770 6 13.987 9.632 3.253 0.000 0.000 0.000 0.509 4
780 6 2.702 13.842 10.995 -0.001 -0.004 -0.001 0.533 0
800 6 1.589 3.814 7.680 0.000 0.000 0.000 0.515 4
814 6 18.278 11.464 11.515 -0.005 0.007 -0.003 0.502 0
843 6 21.704 11.233 5.375 0.000 0.000 0.000 0.553 4
855 6 1.985 13.068 20.249 0.000 -0.002 0.003 0.653 5
868 6 18.585 9.814 18.505 0.000 0.006 0.003 0.534 5
871 6 15.768 8.794 8.287 0.000 0.000 0.000 0.519 4
891 6 20.013 1.163 16.059 0.003 0.002 0.002 0.492 5
896 6 9.330 10.607 9.118 0.000 0.000 0.000 0.519 4
904 6 19.778 13.598 15.650 -0.003 0.000 -0.001 0.504 5
910 6 23.080 8.475 4.701 0.000 0.000 0.000 0.481 4
917 6 2.945 14.934 18.203 0.005 -0.003 -0.004 0.510 5
928 6 4.528 12.136 9.265 0.000 0.000 0.000 0.507 4
930 6 24.969 11.708 8.220 0.000 0.000 0.000 0.537 4
937 6 5.750 11.548 6.693 0.000 0.000 0.000 0.517 4
944 6 19.528 5.128 18.758 -0.001 -0.006 0.006 0.535 5
948 6 8.760 6.811 2.687 0.000 0.000 0.000 0.487 4
965 6 5.054 13.512 19.876 -0.002 0.004 0.002 0.538 5
985 6 2.907 15.491 0.089 0.000 0.000 0.000 0.332 4
1031 6 23.096 15.522 4.214 0.000 0.000 0.000 0.519 4
1045 6 6.261 0.027 1.607 0.000 0.000 0.000 0.467 4
1051 6 18.534 11.565 5.482 0.000 0.000 0.000 0.495 4
1057 6 15.536 14.360 12.899 -0.002 0.003 0.006 0.530 0
1062 6 3.200 10.323 15.452 -0.004 -0.006 0.005 0.506 5
1064 6 8.873 6.621 18.013 0.002 -0.004 0.001 0.508 5
1069 6 20.568 6.246 11.903 0.003 0.004 -0.003 0.534 0
1075 6 13.125 11.529 5.278 0.000 0.000 0.000 0.530 4
1077 6 20.627 7.054 6.363 0.000 0.000 0.000 0.477 4
1080 6 10.800 11.597 11.595 0.003 -0.003 0.005 0.523 0
1082 6 1.547 1.635 1.313 0.000 0.000 0.000 0.371 4
1096 6 23.368 14.765 11.500 -0.000 -0.003 -0.005 0.486 0
1106 6 13.762 6.455 7.950 0.000 0.000 0.000 0.521 4
1108 6 11.982 2.410 16.303 -0.002 0.001 0.008 0.533 5
1116 6 6.346 8.205 6.350 0.000 0.000 0.000 0.528 4
1119 6 8.656 0.362 3.678 0.000 0.000 0.000 0.470 4
1125 6 10.309 11.895 4.891 0.000 0.000 0.000 0.520 4
1134 6 14.185 0.591 15.829 0.003 0.001 0.000 0.548 5
1135 6 18.718 3.243 14.152 0.003 -0.002 0.002 0.507 0
1136 6 17.970 10.214 2.120 0.000 0.000 0.000 0.412 4
1139 6 5.424 10.047 4.450 0.000 0.000 0.000 0.514 4
1142 6 23.980 12.072 18.754 -0.009 -0.007 -0.002 0.500 5
1148 6 23.201 2.249 6.731 0.000 0.000 0.000 0.532 4
1163 6 2.488 7.457 13.026 0.003 0.004 -0.004 0.426 0
1201 6 15.240 2.798 17.905 -0.001 -0.004 0.002 0.496 5
1202 6 12.074 6.941 21.558 0.001 0.005 0.002 0.539 5
1211 6 24.119 14.746 17.359 0.001 -0.002 0.004 0.501 5
1216 6 5.933 5.039 12.989 0.001 -0.003 0.002 0.489 0
1223 6 20.244 12.558 3.223 0.000 0.000 0.000 0.479 4
1226 6 24.081 12.820 3.955 0.000 0.000 0.000 0.528 4
1230 6 19.986 15.180 4.411 0.000 0.000 0.000 0.530 4
1251 6 0.318 7.960 1.009 0.000 0.000 0.000 0.297 4
1275 6 6.843 1.600 15.617 0.003 -0.011 0.003 0.453 5
1282 6 11.282 9.209 4.924 0.000 0.000 0.000 0.509 4
1283 6 17.685 12.155 16.919 0.005 0.003 0.003 0.475 5
1286 6 24.532 11.171 10.952 0.002 0.001 0.003 0.418 0
1287 6 21.999 10.822 11.380 -0.000 0.003 0.003 0.449 0
1290 6 11.714 3.941 4.148 0.000 0.000 0.000 0.505 4
1319 6 5.509 4.091 8.774 0.000 0.000 0.000 0.489 4
1331 6 13.658 14.065 15.031 -0.001 -0.002 -0.001 0.524 5
1333 6 14.557 16.307 10.826 -0.003 0.002 0.001 0.524 0
1365 6 2.224 6.858 6.820 0.000 0.000 0.000 0.514 4
1372 6 6.730 16.207 19.557 0.005 0.000 -0.004 0.524 5
1392 6 10.070 2.357 6.349 0.000 0.000 0.000 0.495 4
1403 6 23.569 0.951 1.524 0.000 0.000 0.000 0.479 4
1409 6 13.181 4.390 9.875 0.000 0.000 0.000 0.512 4
1421 6 22.814 8.555 13.318 -0.004 0.001 -0.002 0.442 0
1428 6 21.116 1.079 13.474 0.002 -0.001 0.001 0.500 0
1429 6 5.638 1.034 18.469 0.007 0.003 -0.004 0.549 5
1456 6 7.267 6.294 15.276 0.002 0.005 0.004 0.504 5
1480 6 24.224 3.269 15.375 -0.000 0.003 0.003 0.528 5
1481 6 7.891 14.848 16.899 0.000 0.004 -0.004 0.542 5
1482 6 17.992 2.706 19.654 -0.000 -0.002 -0.005 0.541 5
1486 6 23.584 9.050 0.457 0.000 0.000 0.000 0.402 4
1493 6 8.125 4.362 7.530 0.000 0.000 0.000 0.519 4
1498 6 23.322 13.589 6.546 0.000 0.000 0.000 0.537 4
1508 6 13.308 8.882 9.701 0.000 0.000 0.000 0.491 4
1512 6 4.555 7.779 15.526 0.004 -0.002 -0.001 0.514 5
1522 6 20.883 4.350 1.186 0.000 0.000 0.000 0.470 4
1532 6 17.497 15.464 11.005 0.001 -0.001 0.003 0.500 0
1539 6 15.279 7.341 18.832 -0.000 0.004 -0.001 0.500 5
1562 6 18.451 5.073 2.594 0.000 0.000 0.000 0.409 4
1569 6 8.065 4.782 21.560 -0.003 0.002 0.004 0.623 5
1579 6 18.547 2.636 0.336 0.000 0.000 0.000 0.375 4
1617 6 23.430 6.545 7.309 0.000 0.000 0.000 0.505 4
1622 6 10.872 16.161 5.519 0.000 0.000 0.000 0.519 4
1626 6 16.471 6.769 6.390 0.000 0.000 0.000 0.508 4
1639 6 11.514 10.051 19.045 0.001 -0.003 0.003 0.533 5
1640 6 19.865 13.907 18.685 -0.003 0.006 0.001 0.545 5
1641 6 1.954 3.595 16.672 -0.000 -0.002 0.000 0.541 5
1649 6 22.356 2.364 11.265 -0.001 -0.003 -0.005 0.430 0
1680 6 0.332 0.976 7.033 0.000 0.000 0.000 0.533 4
1695 6 13.970 5.138 2.213 0.000 0.000 0.000 0.517 4
1713 6 8.244 12.702 10.763 -0.003 0.004 -0.003 0.508 0
1721 6 16.507 14.765 15.876 -0.002 0.001 -0.002 0.526 5
1730 6 8.005 15.636 6.146 0.000 0.000 0.000 0.513 4
1735 6 22.468 12.890 15.919 -0.004 0.007 -0.002 0.506 5
1739 6 8.909 15.543 9.080 0.000 0.000 0.000 0.524 4
1756 6 9.430 8.318 20.353 0.005 0.004 0.001 0.566 5
1769 6 7.982 16.021 14.176 -0.002 0.005 -0.000 0.503 0
1791 6 22.554 2.104 17.359 -0.001 -0.000 0.002 0.503 5
1794 6 6.877 8.524 17.164 0.000 0.002 0.004 0.535 5
1802 6 12.353 7.117 14.831 -0.001 -0.002 -0.002 0.514 0
1821 6 2.304 15.431 5.446 0.000 0.000 0.000 0.517 4
1859 6 18.863 10.219 21.292 -0.001 0.001 0.001 0.522 5
1884 6 4.315 6.612 18.177 -0.001 -0.006 -0.002 0.537 5
1892 6 21.708 4.169 13.804 -0.002 0.004 -0.004 0.520 0
1896 6 18.573 7.339 1.995 0.000 0.000 0.000 0.402 4
1902 6 19.988 7.984 14.602 0.005 0.005 0.001 0.536 0
1910 6 0.085 5.454 9.752 0.000 0.000 0.000 0.440 4
1912 6 8.113 16.430 1.919 0.000 0.000 0.000 0.461 4
1913 6 19.923 2.070 6.058 0.000 0.000 0.000 0.407 4
1914 6 3.339 9.418 2.785 0.000 0.000 0.000 0.464 4
1915 6 1.020 4.452 4.655 0.000 0.000 0.000 0.524 4
1918 6 6.266 2.816 2.405 0.000 0.000 0.000 0.458 4
1940 6 15.899 10.986 1.243 0.000 0.000 0.000 0.385 4
1941 6 6.609 6.966 19.916 0.001 0.007 -0.000 0.560 5
1956 6 5.807 10.936 18.658 -0.000 -0.002 0.001 0.526 5
1959 6 10.506 8.419 16.625 -0.003 0.002 0.004 0.509 5
1973 6 20.770 1.419 20.819 0.000 0.002 0.001 0.514 5
1987 6 11.822 7.062 18.783 0.004 0.001 0.000 0.518 5
1989 6 11.320 12.454 14.323 -0.004 0.000 0.002 0.416 0
2012 6 13.466 2.049 2.432 0.000 0.000 0.000 0.517 4
2015 6 22.885 6.090 0.048 0.000 0.000 0.000 0.350 4
2029 6 17.554 4.082 5.425 0.000 0.000 0.000 0.522 4
2075 6 6.315 9.391 8.939 0.000 0.000 0.000 0.530 4
2076 6 3.811 9.531 12.681 -0.001 -0.001 -0.000 0.445 0
2077 6 19.079 16.321 16.972 -0.007 -0.001 0.000 0.511 5
2079 6 8.252 3.756 12.066 -0.004 -0.004 0.002 0.465 0
2080 6 22.413 10.726 2.585 0.000 0.000 0.000 0.474 4
2090 6 6.313 2.119 10.851 0.004 0.004 -0.001 0.544 0
2095 6 23.814 2.337 20.849 0.001 0.001 -0.002 0.507 5
2101 6 12.407 11.644 21.462 0.000 0.000 0.008 0.443 5
2104 6 15.344 7.020 15.861 0.003 -0.001 -0.003 0.518 5
2111 6 18.534 15.727 13.842 -0.005 0.002 0.001 0.498 0
2139 6 21.669 2.732 3.844 0.000 0.000 0.000 0.507 4
2143 6 5.941 7.660 11.326 -0.003 -0.004 0.003 0.531 0
2151 6 5.408 16.257 1.203 0.000 0.000 0.000 0.442 4
2153 6 9.030 2.772 19.543 0.003 -0.005 0.000 0.499 5
2159 6 22.581 4.329 9.026 0.000 0.000 0.000 0.548 4
2173 6 7.201 12.258 0.330 0.000 0.000 0.000 0.346 4
2188 6 18.248 8.448 12.279 -0.001 -0.005 -0.000 0.512 0
2192 6 2.856 4.876 10.451 -0.002 0.006 0.002 0.519 0
2202 6 1.971 11.077 10.037 0.004 -0.001 -0.007 0.509 0
2211 6 19.058 14.885 1.442 0.000 0.000 0.000 0.454 4
2215 6 4.671 6.791 8.614 0.000 0.000 0.000 0.500 4
2251 6 22.669 9.547 7.480 0.000 0.000 0.000 0.531 4
2264 6 10.206 3.826 10.070 -0.002 0.003 0.005 0.479 0
2270 6 9.165 13.689 2.524 0.000 0.000 0.000 0.537 4
2277 6 14.343 4.965 5.253 0.000 0.000 0.000 0.544 4
2290 6 13.543 5.183 17.012 -0.002 -0.002 -0.006 0.504 5
2292 6 14.302 13.546 7.620 0.000 0.000 0.000 0.461 4
2297 6 13.531 2.357 13.470 -0.008 -0.002 0.007 0.532 0
2310 6 4.500 0.366 13.035 0.003 0.000 -0.001 0.482 0
2318 6 19.905 3.891 10.160 0.002 -0.004 0.004 0.533 0
2323 6 20.376 13.949 7.413 0.000 0.000 0.000 0.514 4
2331 6 23.185 9.271 18.309 -0.002 0.004 0.007 0.502 5
2340 6 8.303 9.278 4.515 0.000 0.000 0.000 0.532 4
2342 6 11.754 15.203 9.980 0.000 0.000 0.000 0.550 4
2348 6 11.440 15.689 2.418 0.000 0.000 0.000 0.486 4
2353 6 22.339 13.659 20.522 -0.005 0.008 0.002 0.511 5
2392 6 8.371 4.356 1.319 0.000 0.000 0.000 0.391 4
2396 6 21.114 11.161 19.572 -0.006 0.001 -0.001 0.542 5
2405 6 8.847 11.228 19.077 -0.004 0.001 0.001 0.534 5
2408 6 11.099 8.637 2.105 0.000 0.000 0.000 0.512 4
2414 6 12.617 15.967 12.845 -0.001 0.001 0.001 0.521 0
2418 6 21.298 7.332 9.170 0.000 0.000 0.000 0.510 4
2426 6 9.407 2.914 14.634 -0.002 -0.002 0.001 0.507 0
2428 6 4.954 4.756 16.076 0.003 0.001 -0.002 0.516 5
2436 6 7.441 11.629 16.481 0.000 -0.003 -0.004 0.535 5
2447 6 12.411 1.676 8.415 0.000 0.000 0.000 0.493 4
2450 6 4.186 7.111 4.437 0.000 0.000 0.000 0.515 4
2461 6 3.412 2.124 9.689 0.000 0.000 0.000 0.541 4
2478 6 8.210 9.296 1.292 0.000 0.000 0.000 0.378 4
2490 6 19.961 5.416 15.923 -0.000 0.000 0.000 0.537 5
2502 6 13.851 5.069 20.220 -0.003 0.003 0.000 0.482 5
2503 6 0.501 0.820 20.543 -0.003 -0.003 0.001 0.638 5
2506 6 2.220 13.355 3.331 0.000 0.000 0.000 0.496 4
2526 6 13.173 6.647 12.030 -0.001 -0.001 0.002 0.535 0
2547 6 8.691 7.775 12.992 0.002 0.003 0.001 0.532 0
2552 6 11.512 4.499 13.600 -0.000 0.001 -0.004 0.476 0
2555 6 16.242 15.523 8.370 0.000 0.000 0.000 0.539 4
2564 6 17.745 6.014 10.739 0.003 -0.004 -0.000 0.499 0
2567 6 8.748 12.909 7.403 0.000 0.000 0.000 0.539 4
2586 6 16.497 9.632 16.163 -0.003 0.003 -0.003 0.542 5
2600 6 21.689 15.792 9.364 0.000 0.000 0.000 0.525 4
2608 6 9.697 0.286 15.983 0.006 -0.005 0.007 0.523 5
2623 6 4.254 2.286 20.781 0.003 -0.001 -0.001 0.525 5
2650 6 15.214 4.220 12.002 0.002 0.003 0.002 0.515 0
2660 6 5.753 4.217 19.102 -0.002 -0.000 0.005 0.512 5
2661 6 15.973 12.074 4.056 0.000 0.000 0.000 0.523 4
2666 6 7.824 10.808 13.656 -0.002 0.001 -0.003 0.494 0
2684 6 11.795 9.987 7.682 0.000 0.000 0.000 0.481 4
2695 6 10.586 11.301 16.574 0.003 -0.006 0.000 0.432 5
2697 6 0.699 13.143 5.766 0.000 0.000 0.000 0.493 4
2712 6 2.473 13.135 15.889 -0.001 0.000 0.002 0.526 5
2714 6 17.368 12.638 19.938 0.000 0.000 0.004 0.456 5
2726 6 8.533 7.872 9.962 0.000 0.000 0.000 0.475 4
2728 6 23.722 5.915 12.260 0.005 -0.002 -0.002 0.535 0
2746 6 15.803 7.070 3.501 0.000 0.000 0.000 0.539 4
2751 6 15.254 2.094 5.012 0.000 0.000 0.000 0.515 4
2763 6 20.749 4.113 6.863 0.000 0.000 0.000 0.422 4
2810 6 11.159 5.512 1.540 0.000 0.000 0.000 0.519 4
2815 6 6.126 10.659 11.418 0.001 -0.002 0.005 0.456 0
2816 6 22.459 12.882 9.426 0.000 0.000 0.000 0.550 4
2840 6 14.394 1.736 10.718 0.003 0.001 -0.001 0.518 0
2845 6 15.548 3.234 0.413 0.000 0.000 0.000 0.243 4
2866 6 13.883 16.409 20.503 -0.001 0.007 0.003 0.448 5
2886 6 2.665 10.917 5.336 0.000 0.000 0.000 0.536 4
2896 6 13.031 7.237 0.058 0.000 0.000 0.000 0.351 4
2899 6 20.906 10.182 16.596 -0.003 0.005 -0.003 0.525 5
2906 6 9.394 6.885 5.775 0.000 0.000 0.000 0.499 4
2909 6 12.843 12.198 9.698 0.000 0.000 0.000 0.501 4
2915 6 18.165 13.375 9.136 0.000 0.000 0.000 0.531 4
2919 6 21.744 4.438 20.930 0.001 -0.003 0.005 0.523 5
2921 6 2.683 4.309 19.473 0.003 0.000 -0.007 0.570 5
2929 6 10.898 4.286 18.103 -0.003 -0.001 -0.000 0.541 5
2953 6 5.580 13.663 11.596 -0.003 0.003 0.004 0.485 0
2957 6 10.337 2.316 2.072 0.000 0.000 0.000 0.506 4
2958 6 18.459 15.232 20.912 -0.001 -0.001 -0.001 0.539 5
2963 6 13.520 16.293 6.656 0.000 0.000 0.000 0.512 4
2971 6 0.835 6.309 21.263 0.000 0.003 0.001 0.575 5
2975 6 9.848 11.476 0.685 0.000 0.000 0.000 0.344 4
2983 6 9.282 16.197 21.151 0.001 0.000 0.005 0.530 5
3007 6 11.272 3.837 21.109 -0.003 0.002 0.004 0.517 5
3019 6 15.992 6.295 0.436 0.000 0.000 0.000 0.258 4
3029 6 22.465 7.406 16.068 -0.001 0.001 0.001 0.535 5
3041 6 16.133 6.701 13.152 0.005 -0.001 0.000 0.530 0
3047 4 3.306 7.185 8.129 0.000 0.000 0.000 -0.312 4
3048 4 7.157 16.296 0.607 0.000 0.000 0.000 -0.280 4
3064 4 15.850 10.268 8.682 0.000 0.000 0.000 -0.390 4
3072 4 19.055 6.815 15.838 -0.001 -0.006 0.003 -0.385 5
3085 4 19.576 1.209 0.494 0.000 0.000 0.000 -0.361 4
3098 4 18.055 7.873 10.415 0.012 0.001 -0.002 -0.379 0
3102 4 12.392 1.546 17.832 -0.007 0.002 0.005 -0.391 5
3115 4 2.473 0.979 2.809 0.000 0.000 0.000 -0.350 4
3123 4 4.577 14.962 0.280 0.000 0.000 0.000 -0.214 4
3142 4 17.240 15.111 12.701 -0.004 -0.003 0.001 -0.378 0
3157 4 3.057 7.502 18.687 -0.002 -0.008 0.005 -0.352 5
3162 4 4.200 6.162 16.400 0.008 0.002 -0.005 -0.391 5
3163 4 22.496 9.785 1.311 0.000 0.000 0.000 -0.308 4
3169 4 23.958 5.499 6.280 0.000 0.000 0.000 -0.327 4
3180 4 6.464 14.786 20.317 -0.000 0.002 0.001 -0.411 5
3185 4 4.812 5.447 4.598 0.000 0.000 0.000 -0.404 4
3193 4 17.383 0.221 11.328 -0.003 -0.005 0.004 -0.407 0
3201 4 5.456 9.303 12.095 0.001 0.001 -0.001 -0.380 0
3214 4 8.536 14.663 7.685 0.000 0.000 0.000 -0.388 4
3228 4 7.472 11.326 11.946 -0.004 0.004 0.001 -0.396 0
3230 4 7.116 10.524 4.325 0.000 0.000 0.000 -0.400 4
3233 4 15.828 12.394 0.168 0.000 0.000 0.000 -0.125 4
3242 4 20.293 0.617 7.042 0.000 0.000 0.000 -0.404 4
3245 4 13.657 13.915 16.752 0.005 -0.004 -0.006 -0.391 5
3247 4 8.032 8.212 5.812 0.000 0.000 0.000 -0.374 4
3265 4 3.345 9.857 21.429 -0.004 -0.002 -0.009 -0.475 5
3298 4 18.364 2.600 6.177 0.000 0.000 0.000 -0.396 4
3305 4 19.434 14.488 5.944 0.000 0.000 0.000 -0.387 4
3308 4 9.108 1.643 2.973 0.000 0.000 0.000 -0.320 4
3336 4 23.913 14.198 3.052 0.000 0.000 0.000 -0.376 4
3338 4 7.552 1.403 9.958 0.000 0.000 0.000 -0.383 4
3340 4 11.885 13.838 18.626 -0.005 -0.000 0.003 -0.364 5
3345 4 22.921 12.562 5.265 0.000 0.000 0.000 -0.426 4
3366 4 8.117 5.655 16.804 0.007 -0.003 -0.003 -0.384 5
3375 4 5.569 16.078 7.779 0.000 0.000 0.000 -0.368 4
3376 4 17.835 8.937 17.257 -0.002 0.004 0.004 -0.411 5
3379 4 0.837 9.261 17.915 -0.002 0.001 -0.000 -0.404 5
3383 4 2.275 11.315 16.385 -0.002 0.002 0.006 -0.379 5
3390 4 4.868 4.135 7.015 0.000 0.000 0.000 -0.381 4
3405 4 9.779 9.841 19.594 -0.007 0.004 -0.003 -0.401 5
3406 4 1.537 12.837 10.513 -0.004 0.003 -0.004 -0.394 0
3410 4 2.151 15.140 3.687 0.000 0.000 0.000 -0.388 4
3414 4 0.486 11.304 13.190 -0.007 -0.007 -0.004 -0.353 0
3418 4 14.332 3.416 19.311 0.001 -0.003 0.002 -0.361 5
3434 4 10.234 10.258 7.839 0.000 0.000 0.000 -0.329 4
3437 4 18.784 6.637 18.619 -0.006 0.003 -0.001 -0.387 5
3440 4 18.431 13.964 19.571 0.003 0.005 -0.005 -0.386 5
3449 4 8.016 5.952 1.288 0.000 0.000 0.000 -0.276 4
3452 4 12.212 8.715 0.882 0.000 0.000 0.000 -0.362 4
3469 4 2.059 11.464 19.321 -0.004 0.002 -0.000 -0.455 5
3473 4 2.643 15.075 12.026 -0.004 -0.000 -0.001 -0.409 0
3487 4 10.441 10.328 10.617 0.002 0.002 -0.001 -0.420 0
3491 4 12.613 8.798 14.343 0.003 -0.001 0.010 -0.385 0
3525 4 10.274 2.225 10.317 -0.002 0.001 0.002 -0.393 0
3533 4 22.644 6.835 3.661 0.000 0.000 0.000 -0.379 4
3537 4 0.798 14.664 6.172 0.000 0.000 0.000 -0.391 4
3581 4 19.805 1.734 14.610 -0.001 0.001 -0.002 -0.395 0
3589 4 15.559 8.631 15.182 0.000 0.007 0.000 -0.382 5
3591 4 10.205 12.816 6.676 0.000 0.000 0.000 -0.348 4
3603 4 5.536 12.412 0.848 0.000 0.000 0.000 -0.222 4
3607 4 15.603 3.655 5.283 0.000 0.000 0.000 -0.375 4
3619 4 16.345 6.951 19.912 0.007 0.007 -0.006 -0.328 5
3623 4 5.889 6.689 7.000 0.000 0.000 0.000 -0.408 4
3627 4 17.196 12.045 10.128 0.001 -0.001 0.009 -0.382 0
3655 4 3.813 14.895 6.020 0.000 0.000 0.000 -0.326 4
3689 4 23.596 15.377 5.892 0.000 0.000 0.000 -0.386 4
3701 4 8.755 8.106 17.208 0.007 0.005 0.001 -0.353 5
3702 4 21.623 0.840 16.550 0.001 0.006 -0.005 -0.426 5
3723 4 0.658 3.620 12.959 -0.004 -0.001 -0.004 -0.402 0
3724 4 20.666 10.582 21.078 0.004 -0.003 -0.000 -0.404 5
3727 4 24.203 7.079 16.020 0.000 0.001 0.004 -0.381 5
3731 4 13.231 1.865 15.162 -0.001 0.006 0.002 -0.416 5
3737 4 2.015 12.545 4.956 0.000 0.000 0.000 -0.400 4
3739 4 7.196 11.160 19.771 0.005 0.003 -0.009 -0.403 5
3743 4 4.172 5.090 19.045 -0.001 0.006 -0.009 -0.417 5
3747 4 3.812 7.857 2.596 0.000 0.000 0.000 -0.373 4
3761 4 7.744 14.980 15.220 -0.002 -0.000 0.005 -0.345 5
3782 4 24.981 12.915 7.065 0.000 0.000 0.000 -0.389 4
3784 4 16.850 0.559 3.325 0.000 0.000 0.000 -0.349 4
3786 4 16.911 3.102 18.165 0.002 -0.001 -0.015 -0.363 5
3788 4 22.852 15.346 13.091 -0.010 -0.007 -0.001 -0.402 0
3794 4 8.279 6.623 14.139 -0.008 0.000 0.002 -0.316 0
3796 4 0.746 12.490 2.468 0.000 0.000 0.000 -0.370 4
3800 4 0.728 4.373 15.624 -0.000 -0.007 0.002 -0.403 5
3803 4 18.110 10.261 12.559 -0.002 0.006 0.001 -0.377 0
3804 4 23.598 16.251 17.671 -0.003 0.004 -0.001 -0.318 5
3817 4 18.447 14.360 10.349 -0.001 -0.004 -0.002 -0.313 0
3825 4 14.403 7.863 8.945 0.000 0.000 0.000 -0.412 4
3849 4 19.331 4.358 17.185 0.003 0.003 0.002 -0.400 5
3855 4 11.194 16.476 1.137 0.000 0.000 0.000 -0.334 4
3867 4 21.589 10.669 7.115 0.000 0.000 0.000 -0.395 4
3870 4 10.357 8.314 12.776 0.003 0.002 0.006 -0.393 0
3874 4 21.863 3.257 0.403 0.000 0.000 0.000 -0.258 4
3879 4 24.803 8.702 5.045 0.000 0.000 0.000 -0.407 4
3889 4 21.959 11.712 12.778 -0.001 0.005 0.005 -0.416 0
3891 4 17.168 9.750 0.630 0.000 0.000 0.000 -0.233 4
3894 4 23.953 6.968 10.662 -0.009 -0.008 -0.004 -0.378 0
3939 4 5.758 0.888 12.031 0.005 -0.006 -0.002 -0.394 0
3942 4 9.150 4.539 10.997 0.005 0.002 0.004 -0.350 0
3944 4 2.841 2.722 7.993 0.000 0.000 0.000 -0.392 4
3947 4 13.499 0.840 1.368 0.000 0.000 0.000 -0.329 4
3950 4 18.432 8.945 2.986 0.000 0.000 0.000 -0.358 4
3951 4 19.668 7.097 8.147 0.000 0.000 0.000 -0.391 4
3961 4 24.470 2.080 0.508 0.000 0.000 0.000 -0.218 4
3969 4 7.828 0.313 15.954 -0.002 -0.003 0.003 -0.361 5
3980 4 14.828 4.226 16.700 0.003 0.011 -0.004 -0.377 5
3989 4 8.380 7.265 19.679 0.001 0.001 -0.002 -0.407 5
4000 4 14.309 15.201 19.304 0.005 -0.004 -0.004 -0.405 5
4006 4 9.489 14.873 17.529 0.002 0.005 0.001 -0.423 5
4010 4 10.896 0.478 12.517 -0.001 -0.006 -0.001 -0.392 0
4015 4 21.909 3.394 17.746 0.003 -0.005 -0.003 -0.339 5
4034 4 24.150 2.162 16.963 0.005 0.005 -0.003 -0.401 5
4046 4 8.057 9.235 9.105 0.000 0.000 0.000 -0.393 4
4047 4 2.733 3.140 10.929 0.004 0.005 0.000 -0.394 0
4054 4 10.886 14.123 2.555 0.000 0.000 0.000 -0.404 4
4066 4 19.775 9.603 15.011 -0.005 -0.001 -0.003 -0.401 5
4072 4 15.184 1.041 17.208 0.003 0.000 -0.000 -0.416 5
4082 4 14.277 12.262 18.727 -0.005 -0.007 0.010 -0.377 5
4087 4 12.861 10.291 9.022 0.000 0.000 0.000 -0.407 4
4089 4 1.755 4.816 6.451 0.000 0.000 0.000 -0.351 4
4099 4 11.548 2.230 7.201 0.000 0.000 0.000 -0.326 4
4136 4 3.578 13.045 2.652 0.000 0.000 0.000 -0.314 4
4137 4 19.384 9.831 8.824 0.000 0.000 0.000 -0.363 4
4151 4 9.754 10.251 4.924 0.000 0.000 0.000 -0.369 4
4177 4 17.890 2.730 12.844 0.005 0.007 0.002 -0.328 0
4187 4 11.535 11.630 1.359 0.000 0.000 0.000 -0.357 4
4190 4 20.880 7.156 10.689 0.003 -0.005 0.005 -0.343 0
4191 4 14.863 3.529 13.482 0.004 0.003 -0.004 -0.403 0
4193 4 17.270 3.550 15.368 0.004 -0.004 -0.000 -0.384 5
4211 4 19.964 4.521 14.478 0.001 0.003 -0.005 -0.397 0
4229 4 12.201 5.221 21.297 -0.007 0.004 0.000 -0.388 5
4243 4 22.225 9.961 4.499 0.000 0.000 0.000 -0.395 4
4253 4 23.953 12.591 14.938 -0.003 -0.000 0.001 -0.397 0
4258 4 3.392 2.645 4.961 0.000 0.000 0.000 -0.384 4
4262 4 16.281 2.836 8.040 0.000 0.000 0.000 -0.352 4
4268 4 5.266 12.435 20.998 0.005 -0.001 0.006 -0.410 5
4280 4 5.119 2.516 9.782 0.000 0.000 0.000 -0.380 4
4303 4 11.049 7.507 20.293 -0.002 -0.003 -0.001 -0.392 5
4315 4 12.285 5.213 2.689 0.000 0.000 0.000 -0.360 4
4316 4 0.628 7.615 20.139 0.000 -0.010 0.000 -0.456 5
4322 4 13.257 13.282 21.197 0.004 -0.009 -0.003 -0.393 5
4325 4 23.844 9.895 14.056 -0.002 0.005 0.007 -0.355 0
4327 4 20.145 10.464 18.245 0.002 -0.006 0.000 -0.412 5
4333 4 12.616 11.928 11.284 0.006 0.005 0.005 -0.374 0
4349 4 6.100 9.748 7.353 0.000 0.000 0.000 -0.367 4
4356 4 1.618 0.630 5.774 0.000 0.000 0.000 -0.400 4
4358 4 23.514 7.321 1.078 0.000 0.000 0.000 -0.355 4
4367 4 9.493 12.632 19.630 0.006 0.003 -0.004 -0.376 5
4376 4 15.501 14.352 14.634 -0.008 0.005 -0.004 -0.380 0
4381 4 19.621 4.296 8.268 0.000 0.000 0.000 -0.395 4
4394 4 7.674 16.357 9.961 0.000 0.000 0.000 -0.407 4
4398 4 11.488 4.715 9.524 0.000 0.000 0.000 -0.398 4
4411 4 23.116 2.520 5.128 0.000 0.000 0.000 -0.385 4
4414 4 19.505 12.602 8.332 0.000 0.000 0.000 -0.403 4
4424 4 10.930 11.033 13.240 0.004 -0.001 0.000 -0.401 0
4427 4 15.205 12.842 12.436 -0.000 -0.001 -0.000 -0.327 0
4451 4 21.574 5.989 16.719 0.002 0.003 0.001 -0.392 5
4452 4 5.349 8.425 4.981 0.000 0.000 0.000 -0.409 4
4473 4 24.818 2.891 7.098 0.000 0.000 0.000 -0.376 4
4478 4 18.726 1.458 16.950 0.006 0.001 0.001 -0.411 5
4479 4 1.454 3.499 0.885 0.000 0.000 0.000 -0.219 4
4489 4 4.828 3.386 2.653 0.000 0.000 0.000 -0.325 4
4517 4 10.392 7.028 2.176 0.000 0.000 0.000 -0.380 4
4538 4 19.985 0.279 12.255 0.003 0.004 -0.001 -0.373 0
4539 4 2.090 9.968 3.638 0.000 0.000 0.000 -0.372 4
4544 4 7.046 13.203 17.002 -0.008 -0.001 0.001 -0.388 5
4558 4 4.248 12.963 15.702 0.001 -0.004 0.009 -0.376 5
4571 4 11.748 2.537 2.950 0.000 0.000 0.000 -0.370 4
4575 4 6.105 13.240 3.542 0.000 0.000 0.000 -0.399 4
4577 4 5.125 12.750 7.665 0.000 0.000 0.000 -0.334 4
4580 4 12.828 4.303 5.141 0.000 0.000 0.000 -0.335 4
4581 4 15.885 2.960 10.795 0.000 0.000 -0.009 -0.397 0
4591 4 21.888 2.554 12.804 -0.001 -0.003 -0.004 -0.377 0
4604 4 5.825 10.894 9.797 0.000 0.000 0.000 -0.397 4
4611 4 21.448 4.179 3.080 0.000 0.000 0.000 -0.384 4
4613 4 9.357 15.620 5.340 0.000 0.000 0.000 -0.337 4
4618 4 12.936 16.339 9.874 0.000 0.000 0.000 -0.393 4
4628 4 6.296 7.923 15.713 -0.000 0.004 -0.005 -0.366 5
4687 4 22.097 3.440 7.529 0.000 0.000 0.000 -0.413 4
4693 4 22.240 13.384 7.763 0.000 0.000 0.000 -0.402 4
4709 4 5.605 7.920 9.746 0.000 0.000 0.000 -0.417 4
4715 4 0.161 9.560 1.059 0.000 0.000 0.000 -0.263 4
4726 4 20.602 15.178 8.333 0.000 0.000 0.000 -0.302 4
4735 4 8.933 11.397 17.176 0.004 0.008 0.002 -0.384 5
4740 4 5.284 13.206 13.074 -0.001 0.010 -0.013 -0.372 0
4742 4 5.965 7.499 18.446 0.001 -0.002 -0.001 -0.386 5
4747 4 13.823 5.058 11.322 -0.000 -0.000 -0.005 -0.402 0
4762 4 15.167 15.651 1.383 0.000 0.000 0.000 -0.250 4
4770 4 3.584 3.457 15.916 -0.002 -0.000 -0.000 -0.391 5
4772 4 16.667 13.260 16.731 0.001 0.005 -0.003 -0.301 5
4777 4 22.457 7.956 6.413 0.000 0.000 0.000 -0.390 4
4778 4 7.069 4.426 8.712 0.000 0.000 0.000 -0.353 4
4787 4 13.614 7.796 21.585 0.004 0.000 -0.001 -0.423 5
4798 4 4.672 10.403 2.889 0.000 0.000 0.000 -0.381 4
4823 4 14.374 6.380 0.877 0.000 0.000 0.000 -0.346 4
4831 4 21.533 11.511 9.897 0.000 0.000 0.000 -0.402 4
4837 4 6.904 16.088 17.672 -0.001 -0.003 -0.002 -0.391 5
4839 4 6.943 11.630 14.752 0.003 0.002 0.002 -0.393 0
4850 4 18.490 14.918 15.637 0.002 0.005 -0.002 -0.397 5
4851 4 1.201 8.430 13.504 0.002 -0.002 -0.006 -0.382 0
4855 4 14.442 11.108 4.512 0.000 0.000 0.000 -0.395 4
4871 4 0.615 2.698 4.328 0.000 0.000 0.000 -0.400 4
4877 4 22.159 8.881 17.018 0.007 0.002 -0.002 -0.400 5
4891 4 1.572 4.201 18.154 -0.000 0.006 -0.002 -0.405 5
4892 4 15.857 15.571 9.996 -0.004 0.003 0.002 -0.402 0
4896 4 5.142 1.352 6.883 0.000 0.000 0.000 -0.333 4
4909 4 14.829 9.067 19.478 -0.003 -0.006 0.001 -0.359 5
4913 4 20.460 1.734 4.463 0.000 0.000 0.000 -0.387 4
4919 4 21.307 5.216 19.387 0.002 -0.007 -0.004 -0.365 5
4924 4 3.852 7.872 13.659 0.002 0.000 -0.001 -0.338 0
4928 4 22.232 2.606 20.641 0.004 0.005 -0.002 -0.405 5
4955 4 12.668 0.102 8.504 0.000 0.000 0.000 -0.320 4
4975 4 16.970 8.011 7.746 0.000 0.000 0.000 -0.383 4
4979 4 18.190 10.068 5.632 0.000 0.000 0.000 -0.335 4
4982 4 6.198 4.181 17.500 -0.000 0.004 0.003 -0.393 5
4989 4 23.775 13.213 19.916 0.005 0.003 0.004 -0.319 5
5001 4 20.063 15.649 12.996 -0.004 -0.004 0.000 -0.400 0
5006 4 21.263 12.027 2.301 0.000 0.000 0.000 -0.320 4
5019 4 9.438 3.702 20.883 0.001 -0.003 -0.004 -0.420 5
5038 4 19.605 12.268 14.423 -0.000 0.001 -0.006 -0.399 0
5039 4 17.292 12.599 5.325 0.000 0.000 0.000 -0.375 4
5042 4 17.371 14.402 7.852 0.000 0.000 0.000 -0.412 4
5043 4 23.220 0.498 7.056 0.000 0.000 0.000 -0.413 4
5055 4 19.186 3.874 1.140 0.000 0.000 0.000 -0.363 4
5061 4 12.140 6.052 13.227 0.003 0.004 -0.012 -0.382 0
5062 4 20.479 0.026 9.618 0.000 0.000 0.000 -0.409 4
5091 4 24.657 15.930 1.057 0.000 0.000 0.000 -0.246 4
5095 4 19.735 7.872 5.383 0.000 0.000 0.000 -0.316 4
5099 4 4.158 1.095 14.339 0.009 -0.003 -0.003 -0.371 0
5109 4 11.516 15.160 11.872 0.001 0.001 -0.003 -0.396 0
5118 4 22.627 5.543 21.645 -0.008 0.001 -0.002 -0.308 5
5138 4 19.982 15.736 18.373 -0.003 0.002 0.002 -0.393 5
5140 4 23.125 13.467 17.453 -0.003 0.000 0.000 -0.365 5
5145 4 11.832 12.093 4.121 0.000 0.000 0.000 -0.408 4
5151 4 14.749 5.672 3.657 0.000 0.000 0.000 -0.371 4
5172 4 2.264 4.665 3.368 0.000 0.000 0.000 -0.374 4
5175 4 11.611 3.360 19.503 0.003 -0.002 -0.003 -0.395 5
5182 4 17.286 11.280 18.565 0.008 -0.001 0.003 -0.394 5
5183 4 4.536 9.992 19.129 -0.001 -0.001 0.001 -0.319 5
5185 4 5.011 12.545 18.344 0.009 0.008 0.011 -0.388 5
5189 4 17.633 0.541 8.502 0.000 0.000 0.000 -0.420 4
5194 4 1.598 13.560 14.327 -0.005 0.005 0.001 -0.392 0
5200 4 6.359 1.650 1.127 0.000 0.000 0.000 -0.276 4
5202 4 7.400 4.364 6.024 0.000 0.000 0.000 -0.399 4
5203 4 17.452 10.893 15.473 -0.002 0.002 0.003 -0.372 5
5206 4 10.670 7.739 5.494 0.000 0.000 0.000 -0.316 4
5235 4 24.102 5.246 18.123 0.002 -0.002 -0.006 -0.388 5
5240 4 2.697 16.146 14.904 0.003 0.002 0.001 -0.360 0
5253 4 14.730 8.320 3.317 0.000 0.000 0.000 -0.332 4
5258 4 23.070 1.830 2.785 0.000 0.000 0.000 -0.328 4
5261 4 8.991 2.676 7.580 0.000 0.000 0.000 -0.382 4
5268 4 21.632 3.634 10.375 -0.001 0.003 -0.006 -0.424 0
5275 4 5.769 7.894 21.111 -0.011 0.000 -0.000 -0.385 5