ITEM: TIMESTEP
0
ITEM: NUMBER OF ATOMS
37359
ITEM: BOX BOUNDS pp pp pp
0.000000 100.000000
0.000000 50.000000
0.000000 110.000000
ITEM: ATOMS id type x y z vx vy vz q mask
3 6 23.587 11.436 13.742 0.001 -0.004 0.000 0.509 0
27 6 17.780 7.225 20.010 0.005 0.003 0.001 0.531 5
33 6 23.860 6.823 2.692 -0.000 -0.000 -0.000 0.488 4
36 6 14.173 15.406 17.446 -0.002 0.000 -0.006 0.530 5
46 6 4.350 6.981 1.181 -0.000 -0.000 -0.000 0.391 4
65 6 14.319 9.094 13.770 -0.001 0.004 -0.000 0.557 0
86 6 14.477 13.548 19.999 -0.000 -0.003 -0.001 0.537 5
87 6 12.691 12.819 17.909 -0.003 0.003 -0.005 0.528 5
90 6 18.686 4.834 21.631 -0.003 -0.003 0.001 0.564 5
98 6 1.849 14.991 13.659 0.004 -0.007 -0.003 0.532 0
101 6 1.359 2.333 11.759 -0.002 0.002 0.000 0.547 0
108 6 9.025 1.515 8.997 -0.000 -0.000 -0.000 0.454 4
109 6 6.730 11.580 21.333 -0.006 -0.000 0.003 0.548 5
110 6 16.252 16.665 2.046 -0.000 -0.000 -0.000 0.367 4
113 6 12.934 2.449 19.242 -0.003 0.002 0.002 0.539 5
116 6 20.471 12.617 12.929 -0.000 0.003 -0.008 0.417 0
129 6 15.812 4.276 14.984 0.001 0.002 -0.000 0.555 5
135 6 9.323 13.067 21.426 0.002 -0.006 0.007 0.511 5
151 6 17.574 2.295 11.316 0.001 -0.001 0.001 0.508 0
161 6 15.968 1.214 21.739 0.001 0.005 -0.002 0.451 5
197 6 2.523 1.229 18.679 -0.002 0.003 0.004 0.541 5
208 6 21.202 1.599 0.068 -0.000 -0.000 -0.000 0.354 4
222 6 0.612 0.254 14.061 -0.000 -0.000 -0.002 0.528 0
224 6 10.636 2.246 12.178 0.001 0.002 0.001 0.546 0
229 6 1.959 5.028 1.818 -0.000 -0.000 -0.000 0.478 4
240 6 10.043 14.439 12.657 0.000 -0.000 -0.002 0.533 0
253 6 1.161 10.990 17.792 0.000 -0.003 0.003 0.524 5
258 6 18.333 8.600 4.829 -0.000 -0.000 -0.000 0.518 4
261 6 6.415 14.841 3.713 -0.000 -0.000 -0.000 0.527 4
265 6 18.570 5.512 8.102 -0.000 -0.000 -0.000 0.518 4
281 6 15.917 3.987 9.075 -0.000 -0.000 -0.000 0.525 4
288 6 5.165 13.463 16.982 0.000 0.000 -0.002 0.533 5
301 6 0.458 15.486 20.198 -0.001 0.001 0.000 0.506 5
308 6 11.078 9.546 13.899 0.003 -0.003 0.001 0.549 0
321 6 7.737 4.162 17.061 0.006 -0.000 -0.002 0.517 5
328 6 18.077 3.154 16.862 0.002 -0.002 0.000 0.525 5
348 6 18.552 8.461 8.938 -0.000 -0.000 -0.000 0.514 4
367 6 7.423 12.265 4.497 -0.000 -0.000 -0.000 0.526 4
370 6 0.692 9.545 7.267 -0.000 -0.000 -0.000 0.523 4
371 6 17.681 14.375 6.069 -0.000 -0.000 -0.000 0.520 4
375 6 22.124 4.996 17.873 -0.002 0.001 -0.002 0.540 5
379 6 10.799 8.710 11.086 0.000 -0.006 -0.000 0.489 0
393 6 0.944 5.138 12.664 -0.000 -0.002 -0.003 0.508 0
404 6 12.781 10.447 0.741 -0.000 -0.000 -0.000 0.382 4
405 6 10.773 6.183 8.538 -0.000 -0.000 -0.000 0.496 4
428 6 4.313 1.920 15.672 0.001 -0.002 -0.000 0.473 5
441 6 5.828 5.307 6.086 -0.000 -0.000 -0.000 0.524 4
445 6 20.325 11.105 8.535 -0.000 -0.000 -0.000 0.539 4
473 6 1.639 8.235 19.162 -0.003 -0.002 -0.001 0.453 5
485 6 11.871 13.720 7.236 -0.000 -0.000 -0.000 0.462 4
486 6 3.294 9.941 20.005 -0.002 -0.003 0.003 0.435 5
503 6 21.159 5.710 3.814 -0.000 -0.000 -0.000 0.511 4
505 6 17.811 7.223 16.957 0.006 0.002 0.001 0.549 5
507 6 5.002 12.260 2.515 -0.000 -0.000 -0.000 0.504 4
533 6 18.618 10.790 14.320 -0.004 0.000 -0.003 0.538 0
534 6 1.221 16.077 2.548 -0.000 -0.000 -0.000 0.518 4
556 6 23.551 8.621 10.419 -0.005 0.001 -0.002 0.518 0
579 6 24.510 2.324 4.006 -0.000 -0.000 -0.000 0.507 4
587 6 2.059 1.675 4.517 -0.000 -0.000 -0.000 0.515 4
593 6 20.187 1.197 10.781 -0.000 0.000 -0.002 0.417 0
594 6 5.071 12.167 14.329 -0.002 -0.006 -0.007 0.516 0
597 6 4.074 2.699 6.605 -0.000 -0.000 -0.000 0.524 4
600 6 15.094 10.824 18.421 0.005 -0.002 -0.001 0.512 5
610 6 17.146 1.741 7.271 -0.000 -0.000 -0.000 0.530 4
616 6 14.759 14.110 2.268 -0.000 -0.000 -0.000 0.434 4
628 6 12.059 12.702 2.493 -0.000 -0.000 -0.000 0.505 4
632 6 14.034 9.259 20.685 0.005 0.001 -0.002 0.519 5
643 6 5.179 14.740 6.815 -0.000 -0.000 -0.000 0.497 4
650 6 17.034 0.653 1.796 -0.000 -0.000 -0.000 0.475 4
676 6 8.548 4.328 4.605 -0.000 -0.000 -0.000 0.506 4
679 6 0.887 9.791 12.381 0.009 0.001 -0.001 0.518 0
683 6 15.793 11.654 9.427 -0.000 -0.000 -0.000 0.529 4
684 6 18.784 0.331 18.357 -0.004 -0.001 -0.000 0.537 5
694 6 0.641 10.457 2.635 -0.000 -0.000 -0.000 0.429 4
703 6 0.478 13.673 1.020 -0.000 -0.000 -0.000 0.427 4
715 6 4.001 4.080 3.852 -0.000 -0.000 -0.000 0.516 4
733 6 9.993 16.522 17.336 0.003 0.001 -0.000 0.481 5
748 6 10.186 14.223 18.907 0.002 -0.004 -0.001 0.530 5
753 6 14.084 11.989 12.691 -0.005 0.004 -0.001 0.513 0
766 6 21.350 14.818 13.597 0.000 0.003 0.002 0.444 0
770 6 13.987 9.632 3.253 -0.000 -0.000 -0.000 0.509 4
780 6 2.580 13.737 11.002 -0.006 -0.003 -0.004 0.524 0
781 6 12.049 16.498 15.667 -0.002 -0.000 0.002 0.489 5
800 6 1.589 3.814 7.680 -0.000 -0.000 -0.000 0.516 4
814 6 18.261 11.521 11.499 -0.000 -0.002 0.000 0.512 0
843 6 21.704 11.233 5.375 -0.000 -0.000 -0.000 0.554 4
855 6 1.923 13.000 19.816 -0.000 -0.003 0.003 0.511 5
868 6 18.385 9.775 18.400 -0.006 0.001 0.000 0.534 5
871 6 15.768 8.794 8.287 -0.000 -0.000 -0.000 0.520 4
891 6 20.039 1.325 15.998 0.002 0.003 0.002 0.478 5
896 6 9.330 10.607 9.118 -0.000 -0.000 -0.000 0.522 4
904 6 19.629 13.579 15.527 0.003 0.001 -0.000 0.526 5
910 6 23.080 8.475 4.701 -0.000 -0.000 -0.000 0.480 4
914 6 24.795 0.602 16.925 0.002 0.001 0.003 0.536 5
917 6 2.917 14.940 18.050 -0.001 -0.005 0.001 0.531 5
928 6 4.528 12.136 9.265 -0.000 -0.000 -0.000 0.508 4
930 6 24.969 11.708 8.220 -0.000 -0.000 -0.000 0.536 4
937 6 5.750 11.548 6.693 -0.000 -0.000 -0.000 0.517 4
944 6 19.402 5.261 18.669 -0.001 0.002 0.001 0.552 5
948 6 8.760 6.811 2.687 -0.000 -0.000 -0.000 0.488 4
965 6 4.909 13.519 20.000 0.001 -0.002 -0.002 0.554 5
985 6 2.907 15.491 0.089 -0.000 -0.000 -0.000 0.332 4
1031 6 23.096 15.522 4.214 -0.000 -0.000 -0.000 0.518 4
1045 6 6.261 0.027 1.607 -0.000 -0.000 -0.000 0.467 4
1051 6 18.534 11.565 5.482 -0.000 -0.000 -0.000 0.494 4
1057 6 15.621 14.508 12.987 -0.004 -0.007 0.001 0.532 0
1062 6 3.187 10.362 15.543 0.003 0.000 0.002 0.500 5
1064 6 8.885 6.805 18.006 0.002 0.001 -0.002 0.484 5
1069 6 20.520 6.374 11.934 -0.000 0.001 0.002 0.546 0
1075 6 13.125 11.529 5.278 -0.000 -0.000 -0.000 0.529 4
1077 6 20.627 7.054 6.363 -0.000 -0.000 -0.000 0.477 4
1080 6 10.843 11.736 11.601 -0.005 0.006 -0.003 0.551 0
1082 6 1.547 1.635 1.313 -0.000 -0.000 -0.000 0.371 4
1096 6 23.419 14.763 11.596 -0.001 0.003 -0.002 0.479 0
1106 6 13.762 6.455 7.950 -0.000 -0.000 -0.000 0.520 4
1108 6 11.993 2.520 16.276 0.003 -0.004 0.003 0.541 5
1116 6 6.346 8.205 6.350 -0.000 -0.000 -0.000 0.527 4
1119 6 8.656 0.362 3.678 -0.000 -0.000 -0.000 0.469 4
1125 6 10.309 11.895 4.891 -0.000 -0.000 -0.000 0.520 4
1134 6 14.193 0.781 15.719 -0.003 -0.003 0.000 0.516 5
1135 6 18.680 3.283 14.136 0.001 -0.002 -0.005 0.527 0
1136 6 17.970 10.214 2.120 -0.000 -0.000 -0.000 0.412 4
1139 6 5.424 10.047 4.450 -0.000 -0.000 -0.000 0.513 4
1142 6 23.807 12.064 18.674 -0.002 0.001 0.001 0.533 5
1148 6 23.201 2.249 6.731 -0.000 -0.000 -0.000 0.532 4
1153 6 24.765 8.400 14.638 -0.005 0.003 -0.003 0.470 0
1163 6 2.480 7.443 12.980 0.001 0.001 -0.001 0.429 0
1201 6 15.322 2.970 17.772 -0.002 0.003 0.003 0.534 5
1202 6 12.101 6.830 21.624 0.001 0.000 0.001 0.538 5
1211 6 23.950 14.738 17.217 0.004 0.001 -0.001 0.498 5
1216 6 5.774 5.037 12.892 -0.003 0.001 -0.006 0.503 0
1223 6 20.244 12.558 3.223 -0.000 -0.000 -0.000 0.479 4
1226 6 24.081 12.820 3.955 -0.000 -0.000 -0.000 0.528 4
1230 6 19.986 15.180 4.411 -0.000 -0.000 -0.000 0.529 4
1239 6 24.866 3.495 10.751 -0.001 -0.002 0.001 0.519 0
1251 6 0.318 7.960 1.009 -0.000 -0.000 -0.000 0.297 4
1275 6 6.957 1.701 15.738 -0.003 -0.001 -0.002 0.445 5
1282 6 11.282 9.209 4.924 -0.000 -0.000 -0.000 0.508 4
1283 6 17.561 12.222 16.971 0.002 -0.001 -0.004 0.486 5
1286 6 24.528 11.143 10.933 0.002 -0.001 -0.001 0.414 0
1287 6 22.073 10.849 11.399 0.006 -0.001 0.006 0.423 0
1290 6 11.714 3.941 4.148 -0.000 -0.000 -0.000 0.505 4
1315 6 12.598 0.006 12.423 0.004 0.001 -0.001 0.515 0
1319 6 5.509 4.091 8.774 -0.000 -0.000 -0.000 0.488 4
1331 6 13.652 14.019 15.050 0.001 -0.003 0.001 0.537 5
1333 6 14.522 16.390 10.758 -0.002 -0.001 -0.004 0.528 0
1365 6 2.224 6.858 6.820 -0.000 -0.000 -0.000 0.514 4
1372 6 6.598 16.154 19.530 0.001 0.001 -0.001 0.521 5
1392 6 10.070 2.357 6.349 -0.000 -0.000 -0.000 0.494 4
1403 6 23.569 0.951 1.524 -0.000 -0.000 -0.000 0.479 4
1409 6 13.181 4.390 9.875 -0.000 -0.000 -0.000 0.519 4
1421 6 22.739 8.529 13.324 0.002 0.006 -0.004 0.448 0
1428 6 21.038 0.985 13.419 -0.003 0.005 -0.001 0.514 0
1429 6 5.495 0.992 18.522 0.001 0.001 -0.003 0.556 5
1456 6 7.101 6.273 15.144 -0.003 0.004 0.003 0.495 5
1480 6 24.120 3.433 15.332 -0.002 -0.000 -0.001 0.551 5
1481 6 7.693 14.920 16.813 -0.002 0.002 -0.001 0.545 5
1482 6 18.117 2.738 19.598 0.003 -0.005 0.002 0.535 5
1486 6 23.584 9.050 0.457 -0.000 -0.000 -0.000 0.401 4
1493 6 8.125 4.362 7.530 -0.000 -0.000 -0.000 0.516 4
1498 6 23.322 13.589 6.546 -0.000 -0.000 -0.000 0.538 4
1508 6 13.308 8.882 9.701 -0.000 -0.000 -0.000 0.475 4
1512 6 4.468 7.718 15.439 -0.002 -0.003 0.005 0.537 5
1522 6 20.883 4.350 1.186 -0.000 -0.000 -0.000 0.470 4
1532 6 17.498 15.496 11.013 -0.003 0.006 0.004 0.501 0
1539 6 15.144 7.255 18.782 -0.002 0.001 -0.001 0.518 5
1562 6 18.451 5.073 2.594 -0.000 -0.000 -0.000 0.409 4
1569 6 7.954 4.792 21.513 -0.001 0.008 -0.005 0.631 5
1579 6 18.547 2.636 0.336 -0.000 -0.000 -0.000 0.374 4
1617 6 23.430 6.545 7.309 -0.000 -0.000 -0.000 0.505 4
1622 6 10.872 16.161 5.519 -0.000 -0.000 -0.000 0.519 4
1626 6 16.471 6.769 6.390 -0.000 -0.000 -0.000 0.508 4
1639 6 11.418 10.070 19.056 0.001 -0.002 -0.001 0.531 5
1640 6 19.664 13.969 18.473 0.001 -0.001 0.005 0.534 5
1641 6 1.845 3.597 16.794 -0.002 0.003 0.000 0.531 5
1649 6 22.282 2.392 11.285 0.003 -0.000 -0.001 0.417 0
1680 6 0.332 0.976 7.033 -0.000 -0.000 -0.000 0.533 4
1695 6 13.970 5.138 2.213 -0.000 -0.000 -0.000 0.516 4
1713 6 8.223 12.647 10.817 -0.001 0.001 0.002 0.513 0
1721 6 16.467 14.667 15.967 -0.003 -0.003 0.003 0.511 5
1730 6 8.005 15.636 6.146 -0.000 -0.000 -0.000 0.513 4
1735 6 22.287 12.805 15.925 0.000 0.000 -0.002 0.531 5
1739 6 8.909 15.543 9.080 -0.000 -0.000 -0.000 0.522 4
1756 6 9.519 8.382 20.480 0.002 -0.001 -0.001 0.560 5
1769 6 7.936 16.039 14.132 0.001 0.003 -0.000 0.510 0
1791 6 22.365 2.124 17.178 0.004 -0.001 0.003 0.494 5
1794 6 6.777 8.516 17.148 0.006 -0.003 -0.002 0.531 5
1802 6 12.302 7.165 14.810 -0.008 0.003 0.001 0.521 0
1821 6 2.304 15.431 5.446 -0.000 -0.000 -0.000 0.517 4
1859 6 18.822 10.121 21.164 0.007 0.004 -0.002 0.527 5
1868 6 24.784 0.548 11.828 0.005 0.005 0.000 0.509 0
1884 6 4.179 6.641 18.152 0.000 -0.001 -0.002 0.549 5
1892 6 21.674 4.172 13.731 0.004 -0.004 0.001 0.543 0
1896 6 18.573 7.339 1.995 -0.000 -0.000 -0.000 0.402 4
1902 6 19.868 8.003 14.454 -0.002 -0.001 -0.001 0.541 0
1910 6 0.085 5.454 9.752 -0.000 -0.000 -0.000 0.462 4
1912 6 8.113 16.430 1.919 -0.000 -0.000 -0.000 0.461 4
1913 6 19.923 2.070 6.058 -0.000 -0.000 -0.000 0.407 4
1914 6 3.339 9.418 2.785 -0.000 -0.000 -0.000 0.464 4
1915 6 1.020 4.452 4.655 -0.000 -0.000 -0.000 0.524 4
1918 6 6.266 2.816 2.405 -0.000 -0.000 -0.000 0.458 4
1940 6 15.899 10.986 1.243 -0.000 -0.000 -0.000 0.385 4
1941 6 6.606 6.971 19.730 -0.003 -0.000 -0.003 0.527 5
1956 6 5.772 10.914 18.659 0.004 0.001 -0.003 0.538 5
1959 6 10.556 8.544 16.573 0.006 0.007 0.005 0.526 5
1973 6 20.672 1.463 20.600 0.005 0.006 -0.001 0.520 5
1987 6 11.814 7.171 18.841 -0.003 -0.002 0.003 0.514 5
1989 6 11.288 12.427 14.370 -0.003 0.002 0.003 0.414 0
2012 6 13.466 2.049 2.432 -0.000 -0.000 -0.000 0.517 4
2015 6 22.885 6.090 0.048 -0.000 -0.000 -0.000 0.349 4
2029 6 17.554 4.082 5.425 -0.000 -0.000 -0.000 0.521 4
2075 6 6.315 9.391 8.939 -0.000 -0.000 -0.000 0.526 4
2076 6 3.700 9.535 12.813 -0.002 0.001 -0.004 0.433 0
2077 6 19.045 16.385 16.878 -0.006 0.001 -0.002 0.515 5
2079 6 8.297 3.825 12.102 -0.002 0.008 0.001 0.500 0
2080 6 22.413 10.726 2.585 -0.000 -0.000 -0.000 0.474 4
2090 6 6.366 2.174 10.876 0.000 0.001 -0.001 0.554 0
2095 6 23.697 2.211 20.733 -0.000 0.001 -0.001 0.494 5
2101 6 12.288 11.700 21.389 0.003 -0.000 -0.004 0.470 5
2104 6 15.217 7.070 15.804 0.002 -0.002 0.001 0.501 5
2111 6 18.535 15.838 13.842 0.001 0.002 -0.002 0.528 0
2139 6 21.669 2.732 3.844 -0.000 -0.000 -0.000 0.507 4
2143 6 5.991 7.769 11.415 -0.003 -0.001 -0.003 0.540 0
2151 6 5.408 16.257 1.203 -0.000 -0.000 -0.000 0.442 4
2153 6 8.822 2.862 19.556 -0.005 0.004 0.003 0.516 5
2159 6 22.581 4.329 9.026 -0.000 -0.000 -0.000 0.558 4
2173 6 7.201 12.258 0.330 -0.000 -0.000 -0.000 0.346 4
2188 6 18.184 8.492 12.122 0.003 0.002 0.003 0.529 0
2192 6 2.851 4.867 10.396 0.003 -0.001 0.002 0.535 0
2202 6 1.946 11.003 10.021 0.001 0.001 0.002 0.520 0
2211 6 19.058 14.885 1.442 -0.000 -0.000 -0.000 0.454 4
2215 6 4.671 6.791 8.614 -0.000 -0.000 -0.000 0.501 4
2251 6 22.669 9.547 7.480 -0.000 -0.000 -0.000 0.531 4
2264 6 10.150 3.931 10.033 0.004 -0.007 -0.001 0.472 0
2270 6 9.165 13.689 2.524 -0.000 -0.000 -0.000 0.537 4
2277 6 14.343 4.965 5.253 -0.000 -0.000 -0.000 0.545 4
2290 6 13.479 5.127 17.009 0.000 -0.000 0.001 0.536 5
2292 6 14.302 13.546 7.620 -0.000 -0.000 -0.000 0.462 4
2297 6 13.438 2.629 13.436 0.001 -0.001 0.003 0.553 0
2310 6 4.509 0.360 13.030 -0.001 0.000 0.003 0.455 0
2318 6 19.899 3.984 10.130 -0.004 0.002 0.001 0.518 0
2323 6 20.376 13.949 7.413 -0.000 -0.000 -0.000 0.514 4
2331 6 22.981 9.210 18.169 -0.007 0.000 -0.000 0.529 5
2340 6 8.303 9.278 4.515 -0.000 -0.000 -0.000 0.532 4
2342 6 11.754 15.203 9.980 -0.000 -0.000 -0.000 0.559 4
2348 6 11.440 15.689 2.418 -0.000 -0.000 -0.000 0.486 4
2353 6 22.136 13.521 20.502 0.003 -0.000 -0.000 0.475 5
2392 6 8.371 4.356 1.319 -0.000 -0.000 -0.000 0.391 4
2396 6 20.988 11.159 19.340 -0.003 0.001 0.000 0.548 5
2405 6 8.823 11.232 19.080 -0.003 0.001 0.002 0.539 5
2408 6 11.099 8.637 2.105 -0.000 -0.000 -0.000 0.513 4
2414 6 12.633 15.882 12.738 -0.000 -0.000 -0.003 0.505 0
2418 6 21.298 7.332 9.170 -0.000 -0.000 -0.000 0.515 4
2426 6 9.417 3.050 14.764 -0.001 0.003 0.006 0.528 0
2428 6 4.818 4.740 16.017 0.002 0.003 0.001 0.525 5
2436 6 7.381 11.662 16.497 0.001 -0.002 0.006 0.532 5
2447 6 12.411 1.676 8.415 -0.000 -0.000 -0.000 0.488 4
2450 6 4.186 7.111 4.437 -0.000 -0.000 -0.000 0.514 4
2461 6 3.412 2.124 9.689 -0.000 -0.000 -0.000 0.538 4
2478 6 8.210 9.296 1.292 -0.000 -0.000 -0.000 0.378 4
2490 6 19.917 5.438 15.838 0.004 0.002 -0.001 0.526 5
2502 6 13.863 4.964 20.169 -0.002 -0.001 -0.005 0.489 5
2503 6 0.281 0.670 20.570 -0.005 -0.002 0.003 0.608 5
2506 6 2.220 13.355 3.331 -0.000 -0.000 -0.000 0.496 4
2526 6 13.180 6.779 12.007 -0.004 -0.002 0.002 0.540 0
2547 6 8.557 7.833 13.080 -0.001 0.001 -0.002 0.528 0
2552 6 11.407 4.652 13.593 0.004 0.000 0.003 0.495 0
2555 6 16.242 15.523 8.370 -0.000 -0.000 -0.000 0.531 4
2564 6 17.731 5.967 10.739 -0.002 0.002 0.001 0.513 0
2567 6 8.748 12.909 7.403 -0.000 -0.000 -0.000 0.537 4
2586 6 16.377 9.814 16.061 -0.000 -0.000 0.001 0.542 5
2600 6 21.689 15.792 9.364 -0.000 -0.000 -0.000 0.519 4
2608 6 9.640 0.402 15.947 0.002 0.002 0.003 0.523 5
2623 6 4.258 2.345 20.831 -0.001 -0.004 0.001 0.515 5
2650 6 15.194 4.376 11.981 -0.000 0.003 0.005 0.507 0
2660 6 5.706 4.176 19.126 -0.001 0.003 0.009 0.507 5
2661 6 15.973 12.074 4.056 -0.000 -0.000 -0.000 0.523 4
2662 6 0.128 12.643 13.523 -0.002 0.005 0.006 0.539 0
2666 6 7.723 10.713 13.610 -0.000 0.001 -0.001 0.502 0
2684 6 11.795 9.987 7.682 -0.000 -0.000 -0.000 0.480 4
2695 6 10.561 11.367 16.571 0.002 0.004 0.007 0.417 5
2697 6 0.699 13.143 5.766 -0.000 -0.000 -0.000 0.492 4
2703 6 24.672 4.764 19.525 0.001 -0.002 0.001 0.509 5
2712 6 2.415 13.102 15.842 0.004 -0.004 0.002 0.543 5
2714 6 17.464 12.543 19.862 0.000 0.001 -0.003 0.443 5
2726 6 8.533 7.872 9.962 -0.000 -0.000 -0.000 0.474 4
2728 6 23.720 5.994 12.360 0.001 -0.003 0.002 0.530 0
2746 6 15.803 7.070 3.501 -0.000 -0.000 -0.000 0.540 4
2751 6 15.254 2.094 5.012 -0.000 -0.000 -0.000 0.516 4
2763 6 20.749 4.113 6.863 -0.000 -0.000 -0.000 0.422 4
2810 6 11.159 5.512 1.540 -0.000 -0.000 -0.000 0.518 4
2815 6 6.058 10.630 11.396 0.002 -0.001 -0.000 0.474 0
2816 6 22.459 12.882 9.426 -0.000 -0.000 -0.000 0.546 4
2840 6 14.392 1.718 10.705 -0.005 0.005 0.005 0.530 0
2845 6 15.548 3.234 0.413 -0.000 -0.000 -0.000 0.242 4
2855 6 0.113 1.319 16.885 -0.002 0.003 -0.000 0.530 5
2866 6 13.770 16.334 20.349 -0.004 0.001 0.001 0.441 5
2886 6 2.665 10.917 5.336 -0.000 -0.000 -0.000 0.536 4
2896 6 13.031 7.237 0.058 -0.000 -0.000 -0.000 0.351 4
2899 6 20.661 10.094 16.475 0.001 -0.001 0.004 0.520 5
2906 6 9.394 6.885 5.775 -0.000 -0.000 -0.000 0.499 4
2909 6 12.843 12.198 9.698 -0.000 -0.000 -0.000 0.508 4
2915 6 18.165 13.375 9.136 -0.000 -0.000 -0.000 0.526 4
2919 6 21.568 4.567 20.885 0.000 -0.002 -0.003 0.514 5
2921 6 2.628 4.295 19.476 -0.001 0.003 0.004 0.558 5
2929 6 10.817 4.373 18.106 -0.002 0.001 -0.002 0.558 5
2953 6 5.516 13.604 11.566 0.002 -0.002 0.006 0.474 0
2957 6 10.337 2.316 2.072 -0.000 -0.000 -0.000 0.506 4
2958 6 18.111 15.416 20.700 -0.008 0.000 0.002 0.556 5
2963 6 13.520 16.293 6.656 -0.000 -0.000 -0.000 0.512 4
2971 6 0.613 6.272 21.223 -0.001 -0.005 -0.001 0.553 5
2975 6 9.848 11.476 0.685 -0.000 -0.000 -0.000 0.344 4
2983 6 9.040 16.190 21.117 0.001 -0.004 0.001 0.551 5
3007 6 11.226 3.862 21.160 0.001 0.000 0.002 0.520 5
3008 6 5.260 16.600 17.048 -0.004 0.003 -0.002 0.444 5
3019 6 15.992 6.295 0.436 -0.000 -0.000 -0.000 0.258 4
3029 6 22.394 7.357 15.992 -0.002 0.001 0.001 0.537 5
3041 6 16.041 6.761 13.122 0.006 -0.003 -0.006 0.512 0
3047 4 3.306 7.185 8.129 -0.000 -0.000 -0.000 -0.314 4
3048 4 7.157 16.296 0.607 -0.000 -0.000 -0.000 -0.280 4
3064 4 15.850 10.268 8.682 -0.000 -0.000 -0.000 -0.389 4
3072 4 18.926 6.792 15.663 0.002 0.001 -0.004 -0.379 5
3085 4 19.576 1.209 0.494 -0.000 -0.000 -0.000 -0.361 4
3087 4 4.776 16.592 10.726 0.001 -0.001 0.001 -0.338 0
3098 4 18.039 7.933 10.515 -0.003 0.006 0.003 -0.400 0
3102 4 12.424 1.622 17.767 -0.001 -0.003 0.001 -0.417 5
3115 4 2.473 0.979 2.809 -0.000 -0.000 -0.000 -0.349 4
3123 4 4.577 14.962 0.280 -0.000 -0.000 -0.000 -0.215 4
3142 4 17.291 15.157 12.697 -0.003 -0.004 -0.002 -0.397 0
3157 4 2.870 7.450 18.668 0.005 0.000 -0.004 -0.344 5
3162 4 4.103 6.246 16.454 0.003 -0.006 0.009 -0.396 5
3163 4 22.496 9.785 1.311 -0.000 -0.000 -0.000 -0.308 4
3169 4 23.958 5.499 6.280 -0.000 -0.000 -0.000 -0.327 4
3180 4 6.167 14.688 20.437 0.002 0.002 -0.003 -0.419 5
3185 4 4.812 5.447 4.598 -0.000 -0.000 -0.000 -0.403 4
3193 4 17.398 0.339 11.425 0.008 -0.001 -0.012 -0.371 0
3201 4 5.467 9.367 12.166 -0.007 0.006 0.006 -0.384 0
3214 4 8.536 14.663 7.685 -0.000 -0.000 -0.000 -0.387 4
3228 4 7.484 11.187 11.855 -0.002 0.002 0.005 -0.398 0
3230 4 7.116 10.524 4.325 -0.000 -0.000 -0.000 -0.400 4
3233 4 15.828 12.394 0.168 -0.000 -0.000 -0.000 -0.126 4
3242 4 20.293 0.617 7.042 -0.000 -0.000 -0.000 -0.404 4
3243 4 1.485 0.097 19.376 0.001 0.003 0.006 -0.416 5
3245 4 13.596 13.888 16.754 -0.000 0.004 0.005 -0.390 5
3247 4 8.032 8.212 5.812 -0.000 -0.000 -0.000 -0.374 4
3265 4 3.746 9.478 21.543 -0.004 -0.001 0.003 -0.371 5
3298 4 18.364 2.600 6.177 -0.000 -0.000 -0.000 -0.396 4
3305 4 19.434 14.488 5.944 -0.000 -0.000 -0.000 -0.387 4
3308 4 9.108 1.643 2.973 -0.000 -0.000 -0.000 -0.319 4
3336 4 23.913 14.198 3.052 -0.000 -0.000 -0.000 -0.376 4
3338 4 7.552 1.403 9.958 -0.000 -0.000 -0.000 -0.369 4
3340 4 11.657 13.848 18.510 -0.006 0.008 -0.000 -0.371 5
3345 4 22.921 12.562 5.265 -0.000 -0.000 -0.000 -0.426 4
3366 4 8.129 5.755 16.702 0.001 0.001 -0.003 -0.347 5
3375 4 5.569 16.078 7.779 -0.000 -0.000 -0.000 -0.367 4
3376 4 17.676 8.874 17.029 -0.007 0.001 0.004 -0.407 5
3379 4 0.829 9.303 17.861 0.001 0.002 -0.002 -0.392 5
3383 4 2.192 11.390 16.450 -0.003 0.008 0.001 -0.393 5
3390 4 4.868 4.135 7.015 -0.000 -0.000 -0.000 -0.381 4
3405 4 9.728 9.902 19.703 0.002 -0.001 0.003 -0.428 5
3406 4 1.409 12.763 10.548 0.004 0.006 0.004 -0.402 0
3410 4 2.151 15.140 3.687 -0.000 -0.000 -0.000 -0.388 4
3414 4 0.555 11.110 13.247 0.000 -0.001 -0.003 -0.340 0
3418 4 14.284 3.405 19.147 -0.003 0.002 0.004 -0.389 5
3434 4 10.234 10.258 7.839 -0.000 -0.000 -0.000 -0.335 4
3437 4 18.572 6.693 18.456 -0.002 0.002 -0.002 -0.412 5
3440 4 18.358 14.133 19.494 0.000 -0.008 -0.009 -0.380 5
3449 4 8.016 5.952 1.288 -0.000 -0.000 -0.000 -0.276 4
3452 4 12.212 8.715 0.882 -0.000 -0.000 -0.000 -0.362 4
3469 4 2.051 11.473 19.501 0.002 -0.001 0.002 -0.385 5
3473 4 2.628 14.974 12.085 0.000 -0.004 -0.004 -0.414 0
3487 4 10.364 10.404 10.654 0.004 0.004 0.004 -0.417 0
3491 4 12.576 8.855 14.226 -0.002 -0.009 0.004 -0.398 0
3525 4 10.197 2.334 10.403 -0.001 0.003 -0.006 -0.377 0
3533 4 22.644 6.835 3.661 -0.000 -0.000 -0.000 -0.380 4
3537 4 0.798 14.664 6.172 -0.000 -0.000 -0.000 -0.391 4
3581 4 19.740 1.674 14.480 0.004 0.005 -0.003 -0.394 0
3589 4 15.361 8.827 15.156 0.001 0.006 -0.001 -0.391 5
3591 4 10.205 12.816 6.676 -0.000 -0.000 -0.000 -0.348 4
3603 4 5.536 12.412 0.848 -0.000 -0.000 -0.000 -0.222 4
3607 4 15.603 3.655 5.283 -0.000 -0.000 -0.000 -0.375 4
3619 4 16.192 6.873 19.874 0.002 0.006 0.002 -0.325 5
3623 4 5.889 6.689 7.000 -0.000 -0.000 -0.000 -0.408 4
3627 4 17.213 12.053 10.153 0.010 -0.001 -0.003 -0.390 0
3655 4 3.813 14.895 6.020 -0.000 -0.000 -0.000 -0.326 4
3689 4 23.596 15.377 5.892 -0.000 -0.000 -0.000 -0.386 4
3701 4 8.860 8.172 17.174 -0.002 -0.004 -0.004 -0.348 5
3702 4 21.397 0.710 16.781 0.003 -0.002 0.004 -0.417 5
3723 4 0.801 3.536 12.961 -0.003 0.003 -0.000 -0.407 0
3724 4 20.556 10.480 20.850 0.001 0.001 0.000 -0.407 5
3725 4 23.051 9.323 21.386 0.004 0.006 -0.000 -0.318 5
3727 4 24.238 7.139 15.859 -0.006 -0.001 0.006 -0.380 5
3731 4 13.189 2.271 15.083 -0.010 0.008 -0.006 -0.421 5
3737 4 2.015 12.545 4.956 -0.000 -0.000 -0.000 -0.399 4
3739 4 7.210 11.210 19.741 0.005 0.003 0.005 -0.427 5
3743 4 4.145 5.080 19.059 0.003 -0.001 0.003 -0.406 5
3747 4 3.812 7.857 2.596 -0.000 -0.000 -0.000 -0.373 4
3761 4 7.866 14.971 15.236 0.002 0.003 0.001 -0.351 5
3782 4 24.981 12.915 7.065 -0.000 -0.000 -0.000 -0.388 4
3784 4 16.850 0.559 3.325 -0.000 -0.000 -0.000 -0.348 4
3786 4 17.012 3.137 18.158 -0.002 -0.002 -0.001 -0.374 5
3788 4 22.858 15.487 13.047 0.001 -0.000 0.008 -0.411 0
3794 4 8.122 6.493 13.928 0.000 -0.004 -0.006 -0.313 0
3796 4 0.746 12.490 2.468 -0.000 -0.000 -0.000 -0.370 4
3800 4 0.647 4.240 15.704 -0.000 0.006 -0.001 -0.418 5
3803 4 18.105 10.338 12.544 0.006 -0.008 -0.006 -0.396 0
3804 4 23.483 16.176 17.565 0.000 0.002 -0.000 -0.331 5
3817 4 18.516 14.472 10.258 -0.003 0.004 -0.001 -0.301 0
3825 4 14.403 7.863 8.945 -0.000 -0.000 -0.000 -0.414 4
3849 4 19.263 4.330 17.177 0.000 0.004 -0.002 -0.410 5
3855 4 11.194 16.476 1.137 -0.000 -0.000 -0.000 -0.334 4
3867 4 21.589 10.669 7.115 -0.000 -0.000 -0.000 -0.395 4
3870 4 10.342 8.469 12.772 -0.002 0.001 0.001 -0.370 0
3874 4 21.863 3.257 0.403 -0.000 -0.000 -0.000 -0.258 4
3879 4 24.803 8.702 5.045 -0.000 -0.000 -0.000 -0.408 4
3889 4 21.880 11.617 12.886 0.005 0.000 0.001 -0.407 0
3891 4 17.168 9.750 0.630 -0.000 -0.000 -0.000 -0.234 4
3894 4 24.029 6.952 10.789 0.003 0.003 -0.008 -0.380 0
3939 4 5.715 0.953 11.952 0.001 -0.001 -0.003 -0.369 0
3942 4 9.082 4.623 11.029 -0.002 -0.005 0.004 -0.355 0
3944 4 2.841 2.722 7.993 -0.000 -0.000 -0.000 -0.390 4
3947 4 13.499 0.840 1.368 -0.000 -0.000 -0.000 -0.329 4
3950 4 18.432 8.945 2.986 -0.000 -0.000 -0.000 -0.358 4
3951 4 19.668 7.097 8.147 -0.000 -0.000 -0.000 -0.396 4
3961 4 24.470 2.080 0.508 -0.000 -0.000 -0.000 -0.218 4
3969 4 7.802 0.353 15.922 -0.004 -0.002 -0.000 -0.380 5
3980 4 14.921 4.098 16.628 0.005 0.000 -0.003 -0.391 5
3989 4 8.362 7.383 19.640 -0.000 0.004 0.001 -0.402 5
4000 4 14.267 15.251 19.130 -0.007 0.001 -0.005 -0.400 5
4004 4 7.757 12.912 21.989 0.004 -0.003 0.001 -0.427 5
4006 4 9.272 14.897 17.576 0.007 -0.000 0.003 -0.409 5
4010 4 10.954 0.651 12.570 0.003 0.007 0.007 -0.400 0
4015 4 21.815 3.433 17.634 0.001 0.005 -0.001 -0.357 5
4034 4 23.948 2.158 16.616 0.002 0.006 -0.001 -0.393 5
4046 4 8.057 9.235 9.105 -0.000 -0.000 -0.000 -0.388 4
4047 4 2.748 3.164 10.880 0.002 -0.003 -0.002 -0.392 0
4054 4 10.886 14.123 2.555 -0.000 -0.000 -0.000 -0.404 4
4066 4 19.496 9.553 15.123 -0.003 0.000 -0.002 -0.406 5
4072 4 15.141 1.081 17.188 0.003 -0.005 -0.010 -0.401 5
4082 4 14.228 12.280 18.841 0.005 0.003 0.002 -0.366 5
4087 4 12.861 10.291 9.022 -0.000 -0.000 -0.000 -0.410 4
4089 4 1.755 4.816 6.451 -0.000 -0.000 -0.000 -0.352 4
4099 4 11.548 2.230 7.201 -0.000 -0.000 -0.000 -0.326 4
4136 4 3.578 13.045 2.652 -0.000 -0.000 -0.000 -0.314 4
4137 4 19.384 9.831 8.824 -0.000 -0.000 -0.000 -0.360 4
4151 4 9.754 10.251 4.924 -0.000 -0.000 -0.000 -0.369 4
4177 4 18.020 2.983 12.649 0.007 0.002 0.009 -0.316 0
4187 4 11.535 11.630 1.359 -0.000 -0.000 -0.000 -0.357 4
4190 4 20.976 7.123 10.708 0.003 0.005 0.003 -0.354 0
4191 4 14.770 3.718 13.522 0.000 -0.002 0.003 -0.403 0
4193 4 17.325 3.501 15.264 -0.004 0.000 -0.006 -0.407 5
4211 4 19.950 4.465 14.432 -0.002 -0.001 -0.006 -0.400 0
4229 4 12.303 5.144 21.287 0.007 -0.001 -0.002 -0.403 5
4243 4 22.225 9.961 4.499 -0.000 -0.000 -0.000 -0.395 4
4253 4 23.840 12.510 14.999 0.001 0.000 0.002 -0.396 0
4258 4 3.392 2.645 4.961 -0.000 -0.000 -0.000 -0.384 4
4262 4 16.281 2.836 8.040 -0.000 -0.000 -0.000 -0.356 4
4268 4 5.161 12.293 21.311 -0.003 -0.005 0.005 -0.535 5
4278 4 24.857 3.097 19.404 -0.004 -0.008 -0.007 -0.379 5
4280 4 5.119 2.516 9.782 -0.000 -0.000 -0.000 -0.372 4
4303 4 11.067 7.514 20.435 -0.006 -0.005 0.003 -0.407 5
4315 4 12.285 5.213 2.689 -0.000 -0.000 -0.000 -0.360 4
4316 4 0.441 7.567 20.179 -0.004 -0.000 0.002 -0.423 5
4322 4 13.107 13.211 21.066 0.001 -0.004 -0.005 -0.408 5
4325 4 23.654 9.843 14.214 -0.004 0.001 -0.005 -0.374 0
4327 4 19.945 10.335 18.218 -0.003 -0.004 -0.001 -0.409 5
4333 4 12.572 12.020 11.257 0.002 -0.003 -0.002 -0.384 0
4349 4 6.100 9.748 7.353 -0.000 -0.000 -0.000 -0.367 4
4356 4 1.618 0.630 5.774 -0.000 -0.000 -0.000 -0.400 4
4358 4 23.514 7.321 1.078 -0.000 -0.000 -0.000 -0.354 4
4367 4 9.379 12.624 19.649 0.004 0.002 0.001 -0.380 5
4376 4 15.353 14.296 14.726 0.007 -0.003 0.004 -0.391 0
4381 4 19.621 4.296 8.268 -0.000 -0.000 -0.000 -0.397 4
4394 4 7.674 16.357 9.961 -0.000 -0.000 -0.000 -0.405 4
4398 4 11.488 4.715 9.524 -0.000 -0.000 -0.000 -0.397 4
4411 4 23.116 2.520 5.128 -0.000 -0.000 -0.000 -0.386 4
4414 4 19.505 12.602 8.332 -0.000 -0.000 -0.000 -0.404 4
4424 4 10.842 11.125 13.185 -0.002 -0.000 -0.001 -0.397 0
4427 4 15.263 13.039 12.449 0.003 0.004 -0.001 -0.325 0
4451 4 21.560 5.990 16.465 -0.003 -0.005 -0.001 -0.392 5
4452 4 5.349 8.425 4.981 -0.000 -0.000 -0.000 -0.409 4
4473 4 24.818 2.891 7.098 -0.000 -0.000 -0.000 -0.375 4
4478 4 18.680 1.394 16.898 0.008 0.001 0.007 -0.416 5
4479 4 1.454 3.499 0.885 -0.000 -0.000 -0.000 -0.219 4
4489 4 4.828 3.386 2.653 -0.000 -0.000 -0.000 -0.325 4
4510 4 0.075 1.672 15.038 -0.003 0.005 0.003 -0.370 5
4517 4 10.392 7.028 2.176 -0.000 -0.000 -0.000 -0.380 4
4538 4 19.926 0.317 12.205 0.003 -0.006 -0.001 -0.364 0
4539 4 2.090 9.968 3.638 -0.000 -0.000 -0.000 -0.373 4
4544 4 6.861 13.245 16.794 -0.003 0.007 0.003 -0.393 5
4558 4 4.224 13.032 15.619 -0.009 -0.001 0.001 -0.397 5
4571 4 11.748 2.537 2.950 -0.000 -0.000 -0.000 -0.370 4
4575 4 6.105 13.240 3.542 -0.000 -0.000 -0.000 -0.399 4
4577 4 5.125 12.750 7.665 -0.000 -0.000 -0.000 -0.334 4
4580 4 12.828 4.303 5.141 -0.000 -0.000 -0.000 -0.334 4
4581 4 15.814 3.040 10.813 -0.005 0.003 0.000 -0.407 0
4591 4 21.770 2.536 12.817 -0.006 -0.003 0.004 -0.377 0
4604 4 5.825 10.894 9.797 -0.000 -0.000 -0.000 -0.402 4
4611 4 21.448 4.179 3.080 -0.000 -0.000 -0.000 -0.384 4
4613 4 9.357 15.620 5.340 -0.000 -0.000 -0.000 -0.337 4
4618 4 12.936 16.339 9.874 -0.000 -0.000 -0.000 -0.410 4
4628 4 6.193 7.858 15.636 0.003 0.002 0.006 -0.355 5
4687 4 22.097 3.440 7.529 -0.000 -0.000 -0.000 -0.416 4
4690 4 8.141 0.037 12.853 0.008 0.000 -0.001 -0.322 0
4693 4 22.240 13.384 7.763 -0.000 -0.000 -0.000 -0.401 4
4709 4 5.605 7.920 9.746 -0.000 -0.000 -0.000 -0.402 4
4715 4 0.161 9.560 1.059 -0.000 -0.000 -0.000 -0.263 4
4726 4 20.602 15.178 8.333 -0.000 -0.000 -0.000 -0.307 4
4728 4 22.134 0.087 14.221 -0.010 0.000 0.002 -0.337 0
4735 4 8.996 11.572 17.096 0.003 -0.004 0.004 -0.377 5
4740 4 5.264 13.096 13.074 0.002 -0.001 0.005 -0.364 0
4742 4 5.843 7.574 18.232 0.004 0.004 -0.002 -0.402 5
4747 4 13.764 5.180 11.315 0.003 -0.003 -0.006 -0.403 0
4762 4 15.167 15.651 1.383 -0.000 -0.000 -0.000 -0.251 4
4770 4 3.709 3.527 16.008 0.001 -0.002 0.000 -0.388 5
4772 4 16.514 13.374 16.962 -0.004 0.005 -0.007 -0.320 5
4777 4 22.457 7.956 6.413 -0.000 -0.000 -0.000 -0.390 4
4778 4 7.069 4.426 8.712 -0.000 -0.000 -0.000 -0.353 4
4787 4 13.579 7.861 21.492 0.003 -0.005 -0.003 -0.429 5
4798 4 4.672 10.403 2.889 -0.000 -0.000 -0.000 -0.381 4
4823 4 14.374 6.380 0.877 -0.000 -0.000 -0.000 -0.346 4
4831 4 21.533 11.511 9.897 -0.000 -0.000 -0.000 -0.398 4
4837 4 6.721 16.198 17.632 0.001 -0.002 0.002 -0.411 5
4839 4 6.932 11.415 14.823 0.003 0.003 0.002 -0.378 0
4850 4 18.437 14.971 15.452 0.007 -0.007 0.005 -0.411 5
4851 4 1.087 8.233 13.350 0.001 0.006 -0.002 -0.384 0
4855 4 14.442 11.108 4.512 -0.000 -0.000 -0.000 -0.395 4
4871 4 0.615 2.698 4.328 -0.000 -0.000 -0.000 -0.401 4
4877 4 21.863 8.728 17.038 -0.005 -0.001 0.006 -0.393 5
4891 4 1.396 4.155 18.247 -0.001 -0.009 -0.006 -0.383 5
4892 4 15.894 15.498 10.008 -0.004 -0.001 -0.001 -0.383 0
4896 4 5.142 1.352 6.883 -0.000 -0.000 -0.000 -0.334 4
4909 4 14.622 9.004 19.223 -0.003 -0.001 -0.006 -0.375 5
4913 4 20.460 1.734 4.463 -0.000 -0.000 -0.000 -0.387 4
4919 4 21.035 5.364 19.260 0.004 0.002 -0.002 -0.375 5
4924 4 3.844 7.832 13.753 -0.001 0.002 -0.005 -0.362 0
4928 4 22.201 2.764 20.447 -0.000 -0.007 0.003 -0.384 5
4955 4 12.668 0.102 8.504 -0.000 -0.000 -0.000 -0.320 4
4975 4 16.970 8.011 7.746 -0.000 -0.000 -0.000 -0.383 4
4979 4 18.190 10.068 5.632 -0.000 -0.000 -0.000 -0.335 4
4982 4 6.127 4.342 17.478 -0.002 0.001 -0.000 -0.398 5
4989 4 23.557 12.952 20.120 0.000 0.007 -0.000 -0.310 5
5001 4 20.123 15.628 12.954 0.002 -0.008 0.001 -0.398 0