ITEM: TIMESTEP
2000000
ITEM: NUMBER OF ATOMS
37359
ITEM: BOX BOUNDS pp pp pp
0.000000 100.000000
0.000000 50.000000
0.000000 110.000000
ITEM: ATOMS id type x y z vx vy vz q mask
3 6 23.707 11.327 13.651 -0.001 -0.003 0.000 0.512 0
27 6 18.182 7.186 19.924 0.004 0.001 -0.002 0.530 5
33 6 23.860 6.823 2.692 0.000 0.000 0.000 0.488 4
36 6 14.293 15.417 17.474 0.000 -0.004 -0.007 0.522 5
46 6 4.350 6.981 1.181 0.000 0.000 0.000 0.391 4
65 6 14.221 8.968 13.625 0.005 -0.001 0.001 0.551 0
86 6 14.774 13.541 19.914 0.002 -0.002 -0.001 0.543 5
87 6 12.869 12.872 17.851 -0.000 0.002 0.000 0.521 5
98 6 2.001 14.961 13.633 0.001 -0.000 -0.001 0.526 0
101 6 1.274 2.352 11.778 -0.003 -0.001 0.004 0.529 0
108 6 9.025 1.515 8.997 0.000 0.000 0.000 0.459 4
109 6 7.009 11.636 21.097 -0.002 -0.002 0.003 0.512 5
110 6 16.252 16.665 2.046 0.000 0.000 0.000 0.368 4
113 6 13.160 2.446 19.236 0.001 -0.002 0.006 0.502 5
116 6 20.653 12.735 12.943 -0.002 0.006 -0.003 0.391 0
129 6 15.786 4.108 15.011 0.002 -0.004 0.007 0.542 5
135 6 9.748 13.121 21.296 0.002 0.003 -0.001 0.511 5
151 6 17.601 2.246 11.502 -0.001 0.001 -0.004 0.551 0
197 6 2.601 1.266 18.625 0.003 -0.002 -0.001 0.545 5
208 6 21.202 1.599 0.068 0.000 0.000 0.000 0.354 4
222 6 0.500 0.199 14.042 0.001 0.005 -0.002 0.517 0
224 6 10.570 2.208 12.202 -0.010 0.009 -0.000 0.524 0
229 6 1.959 5.028 1.818 0.000 0.000 0.000 0.478 4
240 6 10.066 14.447 12.504 0.003 -0.000 -0.005 0.525 0
253 6 1.288 11.057 17.790 -0.003 -0.001 -0.001 0.536 5
258 6 18.333 8.600 4.829 0.000 0.000 0.000 0.518 4
261 6 6.415 14.841 3.713 0.000 0.000 0.000 0.528 4
265 6 18.570 5.512 8.102 0.000 0.000 0.000 0.520 4
281 6 15.917 3.987 9.075 0.000 0.000 0.000 0.517 4
288 6 5.364 13.464 16.973 0.005 -0.000 0.007 0.507 5
308 6 11.097 9.500 13.770 0.006 -0.002 -0.001 0.527 0
321 6 7.984 4.185 17.023 -0.002 0.005 -0.003 0.501 5
328 6 18.186 3.113 16.833 -0.004 -0.003 0.003 0.515 5
348 6 18.552 8.461 8.938 0.000 0.000 0.000 0.526 4
367 6 7.423 12.265 4.497 0.000 0.000 0.000 0.525 4
370 6 0.692 9.545 7.267 0.000 0.000 0.000 0.522 4
371 6 17.681 14.375 6.069 0.000 0.000 0.000 0.519 4
375 6 22.316 4.999 17.737 0.006 0.002 0.001 0.547 5
379 6 10.847 8.551 11.078 -0.003 0.000 -0.001 0.487 0
393 6 0.894 5.173 12.472 0.004 0.003 -0.000 0.484 0
404 6 12.781 10.447 0.741 0.000 0.000 0.000 0.382 4
405 6 10.773 6.183 8.538 0.000 0.000 0.000 0.496 4
428 6 4.308 2.072 15.546 -0.004 -0.006 -0.004 0.484 5
441 6 5.828 5.307 6.086 0.000 0.000 0.000 0.525 4
445 6 20.325 11.105 8.535 0.000 0.000 0.000 0.542 4
473 6 1.648 8.370 19.007 0.000 -0.005 -0.003 0.456 5
485 6 11.871 13.720 7.236 0.000 0.000 0.000 0.461 4
486 6 3.321 10.120 19.955 0.000 0.001 0.004 0.478 5
503 6 21.159 5.710 3.814 0.000 0.000 0.000 0.511 4
505 6 18.025 7.306 16.908 0.001 -0.001 0.002 0.540 5
507 6 5.002 12.260 2.515 0.000 0.000 0.000 0.504 4
533 6 18.868 10.741 14.309 0.001 -0.006 -0.002 0.525 0
534 6 1.221 16.077 2.548 0.000 0.000 0.000 0.518 4
556 6 23.568 8.616 10.342 -0.004 0.003 0.002 0.545 0
579 6 24.510 2.324 4.006 0.000 0.000 0.000 0.508 4
587 6 2.059 1.675 4.517 0.000 0.000 0.000 0.515 4
593 6 20.215 1.136 10.873 0.003 -0.006 -0.000 0.406 0
594 6 5.009 12.207 14.255 -0.001 -0.001 -0.001 0.499 0
597 6 4.074 2.699 6.605 0.000 0.000 0.000 0.525 4
600 6 15.249 10.693 18.341 0.005 0.002 0.002 0.513 5
610 6 17.146 1.741 7.271 0.000 0.000 0.000 0.528 4
616 6 14.759 14.110 2.268 0.000 0.000 0.000 0.434 4
628 6 12.059 12.702 2.493 0.000 0.000 0.000 0.505 4
632 6 14.207 9.269 20.715 -0.002 -0.005 -0.004 0.493 5
643 6 5.179 14.740 6.815 0.000 0.000 0.000 0.497 4
650 6 17.034 0.653 1.796 0.000 0.000 0.000 0.474 4
676 6 8.548 4.328 4.605 0.000 0.000 0.000 0.506 4
679 6 0.792 9.908 12.510 -0.004 -0.000 -0.004 0.511 0
683 6 15.793 11.654 9.427 0.000 0.000 0.000 0.534 4
684 6 18.953 0.289 18.404 0.003 -0.002 0.002 0.515 5
694 6 0.641 10.457 2.635 0.000 0.000 0.000 0.429 4
703 6 0.478 13.673 1.020 0.000 0.000 0.000 0.427 4
715 6 4.001 4.080 3.852 0.000 0.000 0.000 0.516 4
748 6 10.408 13.979 18.726 -0.005 0.007 -0.003 0.515 5
753 6 13.800 11.951 12.758 0.004 -0.001 0.006 0.530 0
766 6 21.383 14.898 13.655 0.004 -0.003 0.000 0.435 0
770 6 13.987 9.632 3.253 0.000 0.000 0.000 0.509 4
780 6 2.789 13.831 10.907 0.002 -0.000 -0.004 0.520 0
800 6 1.589 3.814 7.680 0.000 0.000 0.000 0.516 4
814 6 18.366 11.681 11.468 0.001 -0.000 0.006 0.508 0
843 6 21.704 11.233 5.375 0.000 0.000 0.000 0.553 4
855 6 1.968 12.949 20.095 0.003 -0.001 -0.001 0.662 5
868 6 18.483 9.807 18.337 -0.001 -0.002 0.002 0.509 5
871 6 15.768 8.794 8.287 0.000 0.000 0.000 0.517 4
891 6 20.052 1.109 15.995 -0.003 -0.003 0.000 0.495 5
896 6 9.330 10.607 9.118 0.000 0.000 0.000 0.529 4
904 6 19.712 13.646 15.556 -0.004 0.002 0.003 0.488 5
910 6 23.080 8.475 4.701 0.000 0.000 0.000 0.481 4
917 6 3.059 14.966 18.216 0.005 -0.009 -0.004 0.498 5
928 6 4.528 12.136 9.265 0.000 0.000 0.000 0.501 4
930 6 24.969 11.708 8.220 0.000 0.000 0.000 0.540 4
937 6 5.750 11.548 6.693 0.000 0.000 0.000 0.516 4
944 6 19.689 5.102 18.676 0.001 -0.002 0.004 0.555 5
948 6 8.760 6.811 2.687 0.000 0.000 0.000 0.487 4
965 6 5.052 13.544 19.825 0.003 -0.001 -0.003 0.499 5
985 6 2.907 15.491 0.089 0.000 0.000 0.000 0.332 4
1031 6 23.096 15.522 4.214 0.000 0.000 0.000 0.518 4
1045 6 6.261 0.027 1.607 0.000 0.000 0.000 0.467 4
1051 6 18.534 11.565 5.482 0.000 0.000 0.000 0.495 4
1057 6 15.505 14.308 12.769 0.000 -0.003 0.001 0.544 0
1062 6 3.208 10.282 15.539 -0.005 0.004 -0.002 0.504 5
1064 6 9.018 6.715 18.093 -0.002 0.003 -0.005 0.507 5
1069 6 20.482 6.336 11.913 -0.000 -0.002 -0.001 0.545 0
1075 6 13.125 11.529 5.278 0.000 0.000 0.000 0.530 4
1077 6 20.627 7.054 6.363 0.000 0.000 0.000 0.475 4
1080 6 10.823 11.631 11.559 0.005 -0.001 0.003 0.535 0
1082 6 1.547 1.635 1.313 0.000 0.000 0.000 0.371 4
1096 6 23.398 14.734 11.534 0.002 0.002 0.005 0.491 0
1106 6 13.762 6.455 7.950 0.000 0.000 0.000 0.521 4
1108 6 12.125 2.541 16.298 0.000 0.002 0.004 0.556 5
1116 6 6.346 8.205 6.350 0.000 0.000 0.000 0.528 4
1119 6 8.656 0.362 3.678 0.000 0.000 0.000 0.470 4
1125 6 10.309 11.895 4.891 0.000 0.000 0.000 0.520 4
1134 6 14.291 0.677 15.578 -0.002 -0.000 0.001 0.536 5
1135 6 18.833 3.220 14.133 -0.006 0.001 -0.002 0.536 0
1136 6 17.970 10.214 2.120 0.000 0.000 0.000 0.412 4
1139 6 5.424 10.047 4.450 0.000 0.000 0.000 0.513 4
1142 6 24.076 11.978 18.529 0.003 0.004 0.002 0.516 5
1148 6 23.201 2.249 6.731 0.000 0.000 0.000 0.532 4
1163 6 2.436 7.398 13.004 0.001 0.002 -0.006 0.429 0
1201 6 15.471 2.846 17.684 -0.001 -0.001 0.000 0.539 5
1202 6 12.234 6.849 21.635 0.001 -0.004 -0.000 0.533 5
1211 6 24.278 14.648 17.242 0.000 0.001 -0.001 0.493 5
1216 6 5.860 4.963 12.970 0.000 0.003 -0.000 0.499 0
1223 6 20.244 12.558 3.223 0.000 0.000 0.000 0.479 4
1226 6 24.081 12.820 3.955 0.000 0.000 0.000 0.528 4
1230 6 19.986 15.180 4.411 0.000 0.000 0.000 0.530 4
1251 6 0.318 7.960 1.009 0.000 0.000 0.000 0.297 4
1275 6 7.053 1.688 15.821 -0.003 -0.000 -0.005 0.460 5
1282 6 11.282 9.209 4.924 0.000 0.000 0.000 0.508 4
1283 6 17.749 12.189 16.895 -0.000 -0.003 -0.001 0.484 5
1286 6 24.518 11.115 10.959 0.001 -0.001 0.002 0.405 0
1287 6 22.119 10.884 11.371 -0.001 0.002 -0.004 0.427 0
1290 6 11.714 3.941 4.148 0.000 0.000 0.000 0.505 4
1319 6 5.509 4.091 8.774 0.000 0.000 0.000 0.487 4
1331 6 13.746 14.107 14.991 -0.001 0.001 -0.002 0.542 5
1333 6 14.600 16.375 10.728 -0.002 0.000 0.009 0.520 0
1365 6 2.224 6.858 6.820 0.000 0.000 0.000 0.514 4
1372 6 6.839 16.336 19.575 -0.005 -0.002 -0.002 0.530 5
1392 6 10.070 2.357 6.349 0.000 0.000 0.000 0.494 4
1403 6 23.569 0.951 1.524 0.000 0.000 0.000 0.479 4
1409 6 13.181 4.390 9.875 0.000 0.000 0.000 0.523 4
1421 6 22.792 8.601 13.250 -0.002 0.001 -0.003 0.473 0
1428 6 21.295 1.024 13.482 0.003 0.003 0.002 0.493 0
1429 6 5.597 1.011 18.359 0.005 -0.004 0.007 0.556 5
1456 6 7.205 6.301 15.214 0.005 -0.006 0.000 0.502 5
1480 6 24.413 3.385 15.201 0.002 -0.001 0.003 0.509 5
1481 6 7.839 14.833 16.895 0.004 -0.003 0.003 0.536 5
1482 6 18.234 2.741 19.599 -0.006 -0.002 0.003 0.541 5
1486 6 23.584 9.050 0.457 0.000 0.000 0.000 0.401 4
1493 6 8.125 4.362 7.530 0.000 0.000 0.000 0.516 4
1498 6 23.322 13.589 6.546 0.000 0.000 0.000 0.538 4
1508 6 13.308 8.882 9.701 0.000 0.000 0.000 0.491 4
1512 6 4.447 7.703 15.540 -0.005 -0.003 -0.007 0.515 5
1522 6 20.883 4.350 1.186 0.000 0.000 0.000 0.471 4
1532 6 17.566 15.478 11.017 -0.004 0.002 -0.002 0.508 0
1539 6 15.454 7.255 18.726 0.007 0.006 0.000 0.483 5
1562 6 18.451 5.073 2.594 0.000 0.000 0.000 0.409 4
1569 6 8.214 4.789 21.335 0.009 0.001 0.001 0.609 5
1579 6 18.547 2.636 0.336 0.000 0.000 0.000 0.374 4
1617 6 23.430 6.545 7.309 0.000 0.000 0.000 0.504 4
1622 6 10.872 16.161 5.519 0.000 0.000 0.000 0.518 4
1626 6 16.471 6.769 6.390 0.000 0.000 0.000 0.508 4
1639 6 11.674 10.075 18.884 0.001 0.005 -0.001 0.525 5
1640 6 20.060 13.956 18.511 0.008 -0.002 0.004 0.536 5
1641 6 1.910 3.613 16.605 0.002 -0.006 0.001 0.531 5
1649 6 22.307 2.412 11.273 0.005 0.002 -0.006 0.410 0
1680 6 0.332 0.976 7.033 0.000 0.000 0.000 0.535 4
1695 6 13.970 5.138 2.213 0.000 0.000 0.000 0.516 4
1713 6 8.237 12.644 10.691 -0.003 0.007 0.004 0.523 0
1721 6 16.635 14.711 15.832 -0.001 -0.004 -0.000 0.521 5
1730 6 8.005 15.636 6.146 0.000 0.000 0.000 0.513 4
1735 6 22.550 12.761 15.930 0.004 -0.000 0.004 0.520 5
1739 6 8.909 15.543 9.080 0.000 0.000 0.000 0.527 4
1756 6 9.729 8.337 20.364 -0.004 -0.002 -0.005 0.554 5
1769 6 7.813 15.950 14.116 -0.001 0.003 -0.003 0.507 0
1791 6 22.600 2.162 17.113 -0.001 -0.001 -0.002 0.503 5
1794 6 6.932 8.430 17.072 -0.007 -0.001 0.002 0.542 5
1802 6 12.291 7.103 14.874 -0.001 0.000 -0.002 0.531 0
1821 6 2.304 15.431 5.446 0.000 0.000 0.000 0.516 4
1859 6 19.131 10.079 21.053 0.001 -0.003 0.001 0.491 5
1884 6 4.206 6.674 18.178 -0.003 -0.003 0.001 0.528 5
1892 6 21.805 4.284 13.741 -0.004 0.000 0.002 0.530 0
1896 6 18.573 7.339 1.995 0.000 0.000 0.000 0.402 4
1902 6 20.036 7.957 14.545 -0.000 -0.001 -0.003 0.552 0
1910 6 0.085 5.454 9.752 0.000 0.000 0.000 0.452 4
1912 6 8.113 16.430 1.919 0.000 0.000 0.000 0.461 4
1913 6 19.923 2.070 6.058 0.000 0.000 0.000 0.407 4
1914 6 3.339 9.418 2.785 0.000 0.000 0.000 0.464 4
1915 6 1.020 4.452 4.655 0.000 0.000 0.000 0.524 4
1918 6 6.266 2.816 2.405 0.000 0.000 0.000 0.458 4
1940 6 15.899 10.986 1.243 0.000 0.000 0.000 0.385 4
1941 6 6.587 6.938 19.746 -0.001 -0.001 -0.005 0.518 5
1956 6 5.803 10.914 18.625 0.002 0.002 0.003 0.492 5
1959 6 10.527 8.464 16.574 -0.004 0.001 -0.003 0.513 5
1973 6 20.941 1.512 20.620 -0.002 -0.000 0.002 0.546 5
1987 6 12.046 7.077 18.823 -0.001 -0.004 0.001 0.510 5
1989 6 11.247 12.517 14.286 -0.001 0.002 0.001 0.417 0
2012 6 13.466 2.049 2.432 0.000 0.000 0.000 0.517 4
2015 6 22.885 6.090 0.048 0.000 0.000 0.000 0.349 4
2029 6 17.554 4.082 5.425 0.000 0.000 0.000 0.520 4
2075 6 6.315 9.391 8.939 0.000 0.000 0.000 0.534 4
2076 6 3.659 9.494 12.777 -0.000 -0.002 -0.002 0.440 0
2077 6 19.274 16.353 16.834 0.000 0.005 -0.005 0.501 5
2079 6 8.235 3.777 12.131 -0.004 0.004 -0.004 0.488 0
2080 6 22.413 10.726 2.585 0.000 0.000 0.000 0.474 4
2090 6 6.330 2.155 10.855 0.005 0.000 -0.002 0.553 0
2095 6 23.998 2.167 20.552 0.001 0.003 0.007 0.525 5
2101 6 12.612 11.676 21.365 0.000 0.004 0.001 0.451 5
2104 6 15.291 6.972 15.710 0.004 -0.001 0.007 0.516 5
2111 6 18.504 15.815 13.695 0.002 -0.003 -0.005 0.499 0
2139 6 21.669 2.732 3.844 0.000 0.000 0.000 0.507 4
2143 6 5.947 7.768 11.331 -0.003 -0.001 0.004 0.538 0
2151 6 5.408 16.257 1.203 0.000 0.000 0.000 0.442 4
2153 6 9.023 2.756 19.461 -0.003 0.001 -0.006 0.526 5
2159 6 22.581 4.329 9.026 0.000 0.000 0.000 0.557 4
2173 6 7.201 12.258 0.330 0.000 0.000 0.000 0.346 4
2188 6 18.353 8.517 12.128 0.004 -0.002 0.003 0.518 0
2192 6 2.856 4.822 10.385 -0.000 0.003 -0.000 0.528 0
2202 6 1.903 11.033 10.041 0.003 0.000 0.002 0.502 0
2211 6 19.058 14.885 1.442 0.000 0.000 0.000 0.453 4
2215 6 4.671 6.791 8.614 0.000 0.000 0.000 0.501 4
2251 6 22.669 9.547 7.480 0.000 0.000 0.000 0.533 4
2264 6 10.109 3.914 10.050 -0.004 0.000 0.003 0.462 0
2270 6 9.165 13.689 2.524 0.000 0.000 0.000 0.536 4
2277 6 14.343 4.965 5.253 0.000 0.000 0.000 0.545 4
2290 6 13.614 5.143 17.071 -0.003 0.000 -0.007 0.519 5
2292 6 14.302 13.546 7.620 0.000 0.000 0.000 0.461 4
2297 6 13.487 2.500 13.447 0.001 -0.001 0.006 0.519 0
2310 6 4.588 0.228 13.076 0.001 -0.001 0.000 0.433 0
2318 6 19.816 3.875 10.110 0.006 0.006 0.001 0.536 0
2323 6 20.376 13.949 7.413 0.000 0.000 0.000 0.513 4
2331 6 23.248 9.152 18.293 0.000 -0.003 -0.005 0.532 5
2340 6 8.303 9.278 4.515 0.000 0.000 0.000 0.532 4
2342 6 11.754 15.203 9.980 0.000 0.000 0.000 0.563 4
2348 6 11.440 15.689 2.418 0.000 0.000 0.000 0.486 4
2353 6 22.606 13.371 20.577 -0.005 0.010 0.003 0.482 5
2392 6 8.371 4.356 1.319 0.000 0.000 0.000 0.391 4
2396 6 21.232 11.181 19.337 0.001 -0.004 0.003 0.522 5
2405 6 9.050 11.154 18.836 -0.001 -0.003 -0.004 0.542 5
2408 6 11.099 8.637 2.105 0.000 0.000 0.000 0.513 4
2414 6 12.637 15.932 12.772 -0.001 -0.001 0.004 0.520 0
2418 6 21.298 7.332 9.170 0.000 0.000 0.000 0.537 4
2426 6 9.544 3.004 14.780 0.004 0.003 0.001 0.512 0
2428 6 4.959 4.781 16.046 0.001 0.004 0.002 0.541 5
2436 6 7.450 11.554 16.431 -0.001 0.002 0.004 0.518 5
2447 6 12.411 1.676 8.415 0.000 0.000 0.000 0.490 4
2450 6 4.186 7.111 4.437 0.000 0.000 0.000 0.515 4
2461 6 3.412 2.124 9.689 0.000 0.000 0.000 0.541 4
2478 6 8.210 9.296 1.292 0.000 0.000 0.000 0.378 4
2490 6 20.043 5.396 15.804 -0.003 -0.002 -0.000 0.537 5
2502 6 14.050 5.062 20.229 -0.000 0.004 0.007 0.511 5
2503 6 0.329 0.863 20.630 0.002 0.004 -0.001 0.635 5
2506 6 2.220 13.355 3.331 0.000 0.000 0.000 0.496 4
2526 6 13.202 6.673 11.967 -0.003 -0.001 -0.001 0.555 0
2547 6 8.541 8.046 13.105 0.001 0.000 -0.000 0.520 0
2552 6 11.580 4.611 13.652 -0.000 0.005 -0.003 0.493 0
2555 6 16.242 15.523 8.370 0.000 0.000 0.000 0.530 4
2564 6 17.788 5.952 10.739 -0.001 -0.003 0.001 0.515 0
2567 6 8.748 12.909 7.403 0.000 0.000 0.000 0.543 4
2586 6 16.391 9.759 15.847 -0.004 0.001 0.001 0.540 5
2600 6 21.689 15.792 9.364 0.000 0.000 0.000 0.519 4
2608 6 9.835 0.388 16.035 0.004 -0.006 0.004 0.519 5
2623 6 4.396 2.252 20.733 0.005 0.001 0.002 0.552 5
2650 6 15.286 4.316 11.891 0.001 0.000 0.005 0.518 0
2660 6 5.791 4.273 18.984 0.000 0.001 0.003 0.504 5
2661 6 15.973 12.074 4.056 0.000 0.000 0.000 0.522 4
2666 6 7.796 10.919 13.638 -0.002 -0.003 0.001 0.477 0
2684 6 11.795 9.987 7.682 0.000 0.000 0.000 0.483 4
2695 6 10.663 11.343 16.363 0.000 0.001 0.005 0.411 5
2697 6 0.699 13.143 5.766 0.000 0.000 0.000 0.492 4
2712 6 2.640 13.126 15.864 0.001 -0.004 -0.003 0.544 5
2714 6 17.661 12.477 19.834 -0.000 -0.001 0.005 0.425 5
2726 6 8.533 7.872 9.962 0.000 0.000 0.000 0.489 4
2728 6 23.725 6.018 12.322 -0.006 -0.003 -0.006 0.521 0
2746 6 15.803 7.070 3.501 0.000 0.000 0.000 0.539 4
2751 6 15.254 2.094 5.012 0.000 0.000 0.000 0.515 4
2763 6 20.749 4.113 6.863 0.000 0.000 0.000 0.423 4
2810 6 11.159 5.512 1.540 0.000 0.000 0.000 0.518 4
2815 6 6.106 10.660 11.399 -0.000 -0.005 -0.003 0.479 0
2816 6 22.459 12.882 9.426 0.000 0.000 0.000 0.530 4
2840 6 14.412 1.749 10.711 -0.000 -0.004 0.001 0.509 0
2845 6 15.548 3.234 0.413 0.000 0.000 0.000 0.242 4
2886 6 2.665 10.917 5.336 0.000 0.000 0.000 0.536 4
2896 6 13.031 7.237 0.058 0.000 0.000 0.000 0.351 4
2899 6 21.009 10.082 16.585 0.001 0.005 0.007 0.540 5
2906 6 9.394 6.885 5.775 0.000 0.000 0.000 0.499 4
2909 6 12.843 12.198 9.698 0.000 0.000 0.000 0.511 4
2915 6 18.165 13.375 9.136 0.000 0.000 0.000 0.520 4
2919 6 22.073 4.576 20.745 0.002 0.002 -0.002 0.500 5
2921 6 2.706 4.246 19.335 -0.002 0.003 0.002 0.553 5
2929 6 10.962 4.370 18.153 0.006 -0.001 -0.007 0.543 5
2953 6 5.679 13.664 11.500 -0.006 0.000 -0.000 0.484 0
2957 6 10.337 2.316 2.072 0.000 0.000 0.000 0.506 4
2958 6 18.441 15.254 20.659 0.006 0.001 0.002 0.531 5
2963 6 13.520 16.293 6.656 0.000 0.000 0.000 0.511 4
2971 6 0.802 6.400 21.069 0.003 -0.006 0.001 0.556 5
2975 6 9.848 11.476 0.685 0.000 0.000 0.000 0.344 4
2983 6 9.430 16.251 21.014 -0.002 0.001 0.001 0.532 5
3007 6 11.536 3.751 21.156 -0.005 -0.000 0.003 0.465 5
3019 6 15.992 6.295 0.436 0.000 0.000 0.000 0.258 4
3029 6 22.512 7.405 16.040 -0.000 0.006 -0.005 0.563 5
3041 6 16.110 6.722 13.066 0.003 -0.008 -0.002 0.521 0
3047 4 3.306 7.185 8.129 0.000 0.000 0.000 -0.313 4
3048 4 7.157 16.296 0.607 0.000 0.000 0.000 -0.281 4
3064 4 15.850 10.268 8.682 0.000 0.000 0.000 -0.389 4
3072 4 19.119 6.860 15.641 0.003 -0.004 -0.002 -0.407 5
3085 4 19.576 1.209 0.494 0.000 0.000 0.000 -0.361 4
3098 4 18.146 7.761 10.413 -0.000 -0.000 -0.004 -0.394 0
3102 4 12.593 1.683 17.639 0.004 -0.002 0.002 -0.409 5
3115 4 2.473 0.979 2.809 0.000 0.000 0.000 -0.349 4
3123 4 4.577 14.962 0.280 0.000 0.000 0.000 -0.215 4
3142 4 17.183 15.143 12.662 -0.003 0.003 -0.004 -0.396 0
3157 4 2.867 7.488 18.654 -0.004 0.001 -0.003 -0.332 5
3162 4 4.115 6.153 16.472 0.008 -0.003 -0.002 -0.386 5
3163 4 22.496 9.785 1.311 0.000 0.000 0.000 -0.308 4
3169 4 23.958 5.499 6.280 0.000 0.000 0.000 -0.327 4
3180 4 6.548 14.796 20.276 0.001 -0.006 0.002 -0.410 5
3185 4 4.812 5.447 4.598 0.000 0.000 0.000 -0.403 4
3193 4 17.393 0.320 11.457 0.007 0.000 -0.003 -0.389 0
3201 4 5.271 9.419 12.051 0.006 -0.002 -0.003 -0.389 0
3214 4 8.536 14.663 7.685 0.000 0.000 0.000 -0.388 4
3228 4 7.486 11.243 11.891 0.002 -0.002 -0.002 -0.410 0
3230 4 7.116 10.524 4.325 0.000 0.000 0.000 -0.400 4
3233 4 15.828 12.394 0.168 0.000 0.000 0.000 -0.126 4
3242 4 20.293 0.617 7.042 0.000 0.000 0.000 -0.403 4
3245 4 13.584 13.982 16.714 -0.001 0.003 -0.005 -0.401 5
3247 4 8.032 8.212 5.812 0.000 0.000 0.000 -0.374 4
3265 4 3.641 9.839 21.527 0.007 -0.004 0.002 -0.531 5
3298 4 18.364 2.600 6.177 0.000 0.000 0.000 -0.397 4
3305 4 19.434 14.488 5.944 0.000 0.000 0.000 -0.387 4
3308 4 9.108 1.643 2.973 0.000 0.000 0.000 -0.320 4
3336 4 23.913 14.198 3.052 0.000 0.000 0.000 -0.376 4
3338 4 7.552 1.403 9.958 0.000 0.000 0.000 -0.378 4
3340 4 11.945 13.945 18.597 -0.004 -0.001 0.000 -0.351 5
3345 4 22.921 12.562 5.265 0.000 0.000 0.000 -0.426 4
3366 4 8.246 5.784 16.761 -0.004 0.003 -0.010 -0.358 5
3375 4 5.569 16.078 7.779 0.000 0.000 0.000 -0.369 4
3376 4 17.793 8.897 16.941 -0.006 0.003 0.003 -0.389 5
3379 4 0.920 9.278 17.671 0.003 0.012 -0.009 -0.388 5
3383 4 2.335 11.441 16.421 -0.006 0.004 0.004 -0.390 5
3390 4 4.868 4.135 7.015 0.000 0.000 0.000 -0.381 4
3405 4 10.056 9.778 19.414 0.005 -0.001 -0.004 -0.399 5
3406 4 1.567 12.907 10.432 0.005 -0.004 -0.000 -0.397 0
3410 4 2.151 15.140 3.687 0.000 0.000 0.000 -0.388 4
3414 4 0.557 11.309 13.284 -0.004 0.000 -0.003 -0.347 0
3418 4 14.403 3.424 19.178 0.000 -0.007 0.003 -0.372 5
3434 4 10.234 10.258 7.839 0.000 0.000 0.000 -0.334 4
3437 4 19.011 6.592 18.420 0.002 -0.001 0.002 -0.392 5
3440 4 18.681 13.902 19.414 0.002 -0.003 0.005 -0.376 5
3449 4 8.016 5.952 1.288 0.000 0.000 0.000 -0.276 4
3452 4 12.212 8.715 0.882 0.000 0.000 0.000 -0.362 4
3469 4 2.169 11.383 19.334 0.005 0.007 0.003 -0.428 5
3473 4 2.635 15.007 12.026 0.002 -0.003 0.004 -0.406 0
3487 4 10.350 10.278 10.614 0.004 0.003 0.003 -0.415 0
3491 4 12.562 8.709 14.127 -0.004 -0.005 -0.001 -0.400 0
3525 4 10.218 2.296 10.347 0.003 -0.002 0.008 -0.366 0
3533 4 22.644 6.835 3.661 0.000 0.000 0.000 -0.379 4
3537 4 0.798 14.664 6.172 0.000 0.000 0.000 -0.391 4
3581 4 19.855 1.700 14.531 -0.004 0.004 0.006 -0.388 0
3589 4 15.357 8.666 15.051 -0.003 0.000 0.004 -0.393 5
3591 4 10.205 12.816 6.676 0.000 0.000 0.000 -0.349 4
3603 4 5.536 12.412 0.848 0.000 0.000 0.000 -0.223 4
3607 4 15.603 3.655 5.283 0.000 0.000 0.000 -0.375 4
3619 4 16.613 6.759 19.735 0.003 0.001 -0.002 -0.314 5
3623 4 5.889 6.689 7.000 0.000 0.000 0.000 -0.409 4
3627 4 17.213 12.043 10.142 -0.003 -0.002 -0.004 -0.397 0
3655 4 3.813 14.895 6.020 0.000 0.000 0.000 -0.326 4
3689 4 23.596 15.377 5.892 0.000 0.000 0.000 -0.386 4
3701 4 8.807 8.134 17.351 0.003 0.007 0.003 -0.357 5
3702 4 21.493 0.811 16.658 0.007 0.002 -0.005 -0.422 5
3723 4 0.607 3.506 12.860 -0.003 0.003 -0.009 -0.411 0
3724 4 20.839 10.476 20.846 0.001 0.002 -0.002 -0.388 5
3727 4 24.308 7.250 16.029 0.003 -0.004 0.003 -0.392 5
3731 4 13.281 2.105 15.087 0.006 0.004 0.000 -0.422 5
3737 4 2.015 12.545 4.956 0.000 0.000 0.000 -0.400 4
3739 4 7.470 11.065 19.625 0.002 -0.003 0.004 -0.403 5
3743 4 4.129 5.077 19.004 0.010 0.003 -0.006 -0.399 5
3747 4 3.812 7.857 2.596 0.000 0.000 0.000 -0.373 4
3761 4 7.729 14.964 15.303 0.003 0.005 0.008 -0.340 5
3782 4 24.981 12.915 7.065 0.000 0.000 0.000 -0.389 4
3784 4 16.850 0.559 3.325 0.000 0.000 0.000 -0.348 4
3786 4 17.064 3.054 18.200 -0.002 0.003 -0.007 -0.381 5
3788 4 22.894 15.530 13.005 0.011 0.000 0.000 -0.407 0
3794 4 8.139 6.641 14.001 -0.002 -0.003 -0.008 -0.302 0
3796 4 0.746 12.490 2.468 0.000 0.000 0.000 -0.370 4
3800 4 0.634 4.308 15.538 0.005 -0.008 0.000 -0.406 5
3803 4 18.380 10.374 12.389 0.003 -0.004 -0.003 -0.387 0
3804 4 23.732 16.121 17.449 -0.004 -0.009 -0.005 -0.327 5
3817 4 18.614 14.408 10.273 -0.001 -0.002 -0.003 -0.301 0
3825 4 14.403 7.863 8.945 0.000 0.000 0.000 -0.411 4
3849 4 19.439 4.286 17.037 -0.003 -0.001 0.002 -0.403 5
3855 4 11.194 16.476 1.137 0.000 0.000 0.000 -0.334 4
3867 4 21.589 10.669 7.115 0.000 0.000 0.000 -0.395 4
3870 4 10.300 8.307 12.770 -0.004 0.005 0.008 -0.373 0
3874 4 21.863 3.257 0.403 0.000 0.000 0.000 -0.258 4
3879 4 24.803 8.702 5.045 0.000 0.000 0.000 -0.407 4
3889 4 22.000 11.650 12.874 -0.004 0.004 -0.008 -0.407 0
3891 4 17.168 9.750 0.630 0.000 0.000 0.000 -0.234 4
3894 4 23.917 6.965 10.726 0.000 0.005 -0.008 -0.389 0
3939 4 5.624 0.929 11.981 -0.001 0.001 0.001 -0.367 0
3942 4 9.008 4.553 11.004 0.007 -0.001 0.002 -0.357 0
3944 4 2.841 2.722 7.993 0.000 0.000 0.000 -0.394 4
3947 4 13.499 0.840 1.368 0.000 0.000 0.000 -0.329 4
3950 4 18.432 8.945 2.986 0.000 0.000 0.000 -0.358 4
3951 4 19.668 7.097 8.147 0.000 0.000 0.000 -0.392 4
3961 4 24.470 2.080 0.508 0.000 0.000 0.000 -0.218 4
3969 4 7.969 0.385 16.045 -0.001 0.003 0.008 -0.387 5
3980 4 14.909 3.911 16.603 -0.005 -0.003 -0.003 -0.408 5
3989 4 8.474 7.408 19.682 0.002 0.002 0.009 -0.372 5
4000 4 14.293 15.214 19.284 -0.005 0.002 -0.003 -0.396 5
4006 4 9.504 14.903 17.362 0.012 0.003 -0.004 -0.407 5
4010 4 10.995 0.611 12.561 -0.000 -0.000 -0.007 -0.386 0
4015 4 21.938 3.438 17.433 -0.004 0.008 -0.002 -0.364 5
4034 4 24.209 2.093 16.746 0.001 0.002 -0.001 -0.394 5
4046 4 8.057 9.235 9.105 0.000 0.000 0.000 -0.384 4
4047 4 2.775 3.105 10.866 0.007 -0.003 0.004 -0.386 0
4054 4 10.886 14.123 2.555 0.000 0.000 0.000 -0.404 4
4066 4 19.921 9.631 15.005 -0.000 0.000 0.009 -0.390 5
4072 4 15.382 1.022 17.063 -0.002 -0.001 0.003 -0.391 5
4082 4 14.302 12.258 18.875 0.007 0.007 0.003 -0.363 5
4087 4 12.861 10.291 9.022 0.000 0.000 0.000 -0.420 4
4089 4 1.755 4.816 6.451 0.000 0.000 0.000 -0.351 4
4099 4 11.548 2.230 7.201 0.000 0.000 0.000 -0.325 4
4136 4 3.578 13.045 2.652 0.000 0.000 0.000 -0.314 4
4137 4 19.384 9.831 8.824 0.000 0.000 0.000 -0.361 4
4151 4 9.754 10.251 4.924 0.000 0.000 0.000 -0.369 4
4177 4 18.077 2.922 12.807 -0.002 0.006 -0.008 -0.347 0
4187 4 11.535 11.630 1.359 0.000 0.000 0.000 -0.357 4
4190 4 20.974 7.109 10.611 -0.000 -0.001 0.000 -0.351 0
4191 4 15.021 3.666 13.421 -0.011 -0.001 -0.004 -0.383 0
4193 4 17.337 3.416 15.335 0.002 0.005 -0.003 -0.385 5
4211 4 20.046 4.526 14.370 0.002 -0.004 -0.002 -0.404 0
4229 4 12.545 5.194 21.184 0.008 -0.009 0.004 -0.408 5
4243 4 22.225 9.961 4.499 0.000 0.000 0.000 -0.395 4
4253 4 23.999 12.429 14.916 -0.000 0.000 -0.002 -0.395 0
4258 4 3.392 2.645 4.961 0.000 0.000 0.000 -0.384 4
4262 4 16.281 2.836 8.040 0.000 0.000 0.000 -0.351 4
4268 4 5.450 12.503 20.933 -0.005 -0.002 0.001 -0.261 5
4280 4 5.119 2.516 9.782 0.000 0.000 0.000 -0.379 4
4303 4 11.244 7.447 20.324 -0.005 -0.000 0.001 -0.408 5
4315 4 12.285 5.213 2.689 0.000 0.000 0.000 -0.360 4
4316 4 0.329 7.716 19.960 -0.001 -0.004 -0.010 -0.424 5
4322 4 13.564 13.364 21.194 0.001 -0.002 0.004 -0.376 5
4325 4 23.814 9.796 14.214 0.000 -0.004 0.003 -0.380 0
4327 4 20.008 10.426 18.052 -0.008 0.006 -0.003 -0.406 5
4333 4 12.550 12.103 11.262 -0.005 -0.004 -0.002 -0.391 0
4349 4 6.100 9.748 7.353 0.000 0.000 0.000 -0.368 4
4356 4 1.618 0.630 5.774 0.000 0.000 0.000 -0.401 4
4358 4 23.514 7.321 1.078 0.000 0.000 0.000 -0.354 4
4367 4 9.812 12.448 19.474 -0.006 -0.003 -0.007 -0.376 5
4376 4 15.393 14.232 14.574 -0.005 -0.007 -0.005 -0.377 0
4381 4 19.621 4.296 8.268 0.000 0.000 0.000 -0.402 4
4394 4 7.674 16.357 9.961 0.000 0.000 0.000 -0.402 4
4398 4 11.488 4.715 9.524 0.000 0.000 0.000 -0.392 4
4411 4 23.116 2.520 5.128 0.000 0.000 0.000 -0.386 4
4414 4 19.505 12.602 8.332 0.000 0.000 0.000 -0.400 4
4424 4 10.893 11.163 13.177 0.005 0.000 0.000 -0.428 0
4427 4 15.057 12.923 12.388 -0.006 0.002 0.003 -0.348 0
4451 4 21.725 5.937 16.454 -0.005 -0.001 0.001 -0.407 5
4452 4 5.349 8.425 4.981 0.000 0.000 0.000 -0.409 4
4473 4 24.818 2.891 7.098 0.000 0.000 0.000 -0.375 4
4478 4 18.718 1.386 16.866 -0.004 0.009 -0.003 -0.419 5
4479 4 1.454 3.499 0.885 0.000 0.000 0.000 -0.219 4
4489 4 4.828 3.386 2.653 0.000 0.000 0.000 -0.326 4
4517 4 10.392 7.028 2.176 0.000 0.000 0.000 -0.380 4
4538 4 19.967 0.336 12.309 0.004 0.003 0.000 -0.330 0
4539 4 2.090 9.968 3.638 0.000 0.000 0.000 -0.373 4
4544 4 7.067 13.172 17.067 -0.000 0.001 -0.007 -0.384 5
4558 4 4.346 13.209 15.464 -0.006 -0.005 0.008 -0.387 5
4571 4 11.748 2.537 2.950 0.000 0.000 0.000 -0.371 4
4575 4 6.105 13.240 3.542 0.000 0.000 0.000 -0.399 4
4577 4 5.125 12.750 7.665 0.000 0.000 0.000 -0.330 4
4580 4 12.828 4.303 5.141 0.000 0.000 0.000 -0.334 4
4581 4 15.997 3.003 10.838 -0.000 0.000 0.006 -0.411 0
4591 4 21.898 2.601 12.791 -0.000 0.005 0.003 -0.375 0
4604 4 5.825 10.894 9.797 0.000 0.000 0.000 -0.402 4
4611 4 21.448 4.179 3.080 0.000 0.000 0.000 -0.384 4
4613 4 9.357 15.620 5.340 0.000 0.000 0.000 -0.337 4
4618 4 12.936 16.339 9.874 0.000 0.000 0.000 -0.394 4
4628 4 6.275 7.900 15.667 -0.004 0.000 -0.007 -0.362 5
4687 4 22.097 3.440 7.529 0.000 0.000 0.000 -0.409 4
4693 4 22.240 13.384 7.763 0.000 0.000 0.000 -0.399 4
4709 4 5.605 7.920 9.746 0.000 0.000 0.000 -0.417 4
4715 4 0.161 9.560 1.059 0.000 0.000 0.000 -0.263 4
4726 4 20.602 15.178 8.333 0.000 0.000 0.000 -0.302 4
4735 4 9.077 11.402 16.981 -0.001 -0.006 -0.000 -0.393 5
4740 4 5.239 13.181 12.948 0.005 0.011 -0.001 -0.356 0
4742 4 6.012 7.449 18.205 0.003 -0.003 0.002 -0.389 5
4747 4 13.784 5.090 11.280 0.004 -0.005 0.005 -0.422 0
4762 4 15.167 15.651 1.383 0.000 0.000 0.000 -0.251 4
4770 4 3.584 3.539 15.887 0.005 -0.003 0.002 -0.389 5
4772 4 16.784 13.382 16.762 0.006 -0.007 0.001 -0.326 5
4777 4 22.457 7.956 6.413 0.000 0.000 0.000 -0.392 4
4778 4 7.069 4.426 8.712 0.000 0.000 0.000 -0.354 4
4787 4 13.699 7.875 21.497 -0.003 -0.000 -0.003 -0.417 5
4798 4 4.672 10.403 2.889 0.000 0.000 0.000 -0.381 4
4823 4 14.374 6.380 0.877 0.000 0.000 0.000 -0.346 4
4831 4 21.533 11.511 9.897 0.000 0.000 0.000 -0.394 4
4837 4 6.821 16.231 17.745 0.006 0.007 0.011 -0.366 5
4839 4 6.840 11.675 14.706 0.003 -0.002 -0.002 -0.382 0
4850 4 18.470 15.078 15.508 0.002 -0.001 -0.006 -0.402 5
4851 4 1.110 8.292 13.499 0.003 -0.003 -0.008 -0.398 0
4855 4 14.442 11.108 4.512 0.000 0.000 0.000 -0.395 4
4871 4 0.615 2.698 4.328 0.000 0.000 0.000 -0.400 4
4877 4 22.134 8.734 17.033 0.006 0.003 -0.000 -0.430 5
4891 4 1.472 4.203 18.066 0.003 -0.001 -0.000 -0.392 5
4892 4 16.021 15.499 10.041 -0.001 -0.002 -0.007 -0.400 0
4896 4 5.142 1.352 6.883 0.000 0.000 0.000 -0.333 4
4909 4 15.081 9.039 19.312 -0.004 0.004 0.001 -0.372 5
4913 4 20.460 1.734 4.463 0.000 0.000 0.000 -0.387 4
4919 4 21.363 5.234 19.206 0.001 -0.006 0.001 -0.384 5
4924 4 3.764 7.785 13.764 -0.006 -0.003 -0.008 -0.348 0
4928 4 22.382 2.627 20.500 0.001 -0.005 0.001 -0.395 5
4955 4 12.668 0.102 8.504 0.000 0.000 0.000 -0.317 4
4975 4 16.970 8.011 7.746 0.000 0.000 0.000 -0.382 4
4979 4 18.190 10.068 5.632 0.000 0.000 0.000 -0.335 4
4982 4 6.115 4.418 17.371 -0.005 0.003 -0.001 -0.389 5
4989 4 23.963 12.815 20.018 -0.001 0.003 -0.009 -0.287 5
5001 4 20.151 15.770 12.897 -0.001 0.000 -0.001 -0.401 0
5006 4 21.263 12.027 2.301 0.000 0.000 0.000 -0.320 4
5019 4 9.514 3.726 20.687 -0.001 -0.004 0.005 -0.413 5
5038 4 19.561 12.367 14.309 0.004 -0.004 -0.000 -0.380 0
5039 4 17.292 12.599 5.325 0.000 0.000 0.000 -0.375 4
5042 4 17.371 14.402 7.852 0.000 0.000 0.000 -0.404 4
5043 4 23.220 0.498 7.056 0.000 0.000 0.000 -0.411 4
5055 4 19.186 3.874 1.140 0.000 0.000 0.000 -0.363 4
5061 4 12.147 6.134 13.309 -0.002 0.004 0.004 -0.386 0
5062 4 20.479 0.026 9.618 0.000 0.000 0.000 -0.396 4
5091 4 24.657 15.930 1.057 0.000 0.000 0.000 -0.246 4
5095 4 19.735 7.872 5.383 0.000 0.000 0.000 -0.317 4
5099 4 4.158 1.208 14.284 -0.003 -0.001 0.002 -0.347 0
5109 4 11.474 15.093 11.819 -0.003 0.004 -0.004 -0.394 0
5118 4 23.029 5.597 21.547 -0.003 0.005 0.006 -0.332 5
5138 4 20.265 15.622 18.210 -0.001 0.004 0.004 -0.388 5
5140 4 23.367 13.283 17.414 -0.004 -0.003 0.010 -0.397 5
5145 4 11.832 12.093 4.121 0.000 0.000 0.000 -0.408 4
5151 4 14.749 5.672 3.657 0.000 0.000 0.000 -0.371 4
5172 4 2.264 4.665 3.368 0.000 0.000 0.000 -0.374 4
5175 4 11.715 3.386 19.482 -0.003 -0.000 -0.009 -0.389 5
5182 4 17.159 11.253 18.449 0.001 -0.009 -0.004 -0.382 5
5183 4 4.680 9.961 19.155 0.004 -0.003 -0.002 -0.325 5
5185 4 4.991 12.523 18.299 -0.003 0.003 -0.003 -0.385 5
5189 4 17.633 0.541 8.502 0.000 0.000 0.000 -0.411 4
5194 4 1.655 13.583 14.438 0.007 -0.005 -0.001 -0.386 0
5200 4 6.359 1.650 1.127 0.000 0.000 0.000 -0.277 4
5202 4 7.400 4.364 6.024 0.000 0.000 0.000 -0.399 4
5203 4 17.563 10.963 15.345 0.000 0.001 0.004 -0.365 5
5206 4 10.670 7.739 5.494 0.000 0.000 0.000 -0.316 4
5235 4 24.158 5.425 18.011 -0.001 -0.002 -0.007 -0.412 5
5240 4 2.696 16.133 14.880 0.011 -0.005 0.007 -0.354 0
5253 4 14.730 8.320 3.317 0.000 0.000 0.000 -0.331 4
5258 4 23.070 1.830 2.785 0.000 0.000 0.000 -0.328 4
5261 4 8.991 2.676 7.580 0.000 0.000 0.000 -0.382 4
5268 4 21.621 3.567 10.293 -0.005 0.004 0.003 -0.412 0
5275 4 5.666 7.731 20.907 0.007 0.013 0.005 -0.363 5